157
Lattice="12.29434013 0.0 0.0 -6.14717148 10.64721006 0.0 0.0 0.0 22.0" Properties=species:S:1:pos:R:3 energy_eV=-1421.8459 mag=-0.9999 pbc="T T T"
C        4.91773543       4.25888390       0.00000000
C        3.68830150       2.12944215       0.00000000
C        3.68830075       4.96869795       0.00000000
C        2.45886739       4.25888389       0.00000000
C        2.45886754       2.83925621       0.00000000
C       -3.68830368      10.64720999       0.00000000
C        1.22943283       4.96869795       0.00000000
C        1.22943347       2.12944215       0.00000000
C        7.37660265       8.51776803       0.00000000
C        1.22943325       0.70981400       0.00000000
C       -0.00000038       4.25888388       0.00000000
C       -0.00000029       2.83925620       0.00000000
C        6.14716856      10.64721000       0.00000000
C        6.14716864       9.22758233       0.00000000
C        6.14716884       6.38832605       0.00000000
C       -1.22943520       4.96869795       0.00000000
C       11.06490556       2.12944215       0.00000000
C        4.91773485       8.51776803       0.00000000
C       11.06490545       0.70981400       0.00000000
C        4.91773477       7.09814011       0.00000000
C        3.68830086      10.64720999       0.00000000
C        9.83547136       2.83925621       0.00000000
C        3.68830077       9.22758233       0.00000000
C        9.83547075       4.25888389       0.00000000
C        3.68830082       6.38832605       0.00000000
C        8.60603655       4.96869795       0.00000000
C        8.60603743       0.70981401       0.00000000
C        8.60603706       2.12944215       0.00000000
C        2.45886647       8.51776803       0.00000000
C        2.45886662       7.09814011       0.00000000
C        7.37660439       4.25888389       0.00000000
C        1.22943250       9.22758233       0.00000000
C        7.37660286       2.83925621       0.00000000
C        1.22943278       6.38832604       0.00000000
C        1.22943166      10.64721000       0.00000000
C        6.14716924       4.96869795       0.00000000
C        6.14716952       2.12944216       0.00000000
C       -0.00000142       7.09814012       0.00000000
C       -0.00000180       8.51776802       0.00000000
C        6.14716893       0.70981401       0.00000000
C        4.91773579       2.83925621       0.00000000
C       -1.22943590      10.64720999       0.00000000
C       -1.22943599       9.22758233       0.00000000
C       -1.22943572       6.38832603       0.00000000
C        3.68830186       0.70981401       0.00000000
C       -2.45886982       8.51776802       0.00000000
C       -2.45887039       7.09814011       0.00000000
C       -3.68830306       9.22758233       0.00000000
C        8.60603686       6.38832604       0.00000000
C        7.37660171       7.09814011       0.00000000
C        4.91773543       4.25888390       3.35461664
C        4.91773505       5.67851202       3.35461664
C        3.68830136       3.54907028       3.35461664
C        3.68830150       2.12944215       3.35461664
C        2.45886739       4.25888389       3.35461664
C       -3.68830368      10.64720999       3.35461664
C        2.45886743       1.41962855       3.35461664
C        2.45886629       5.67851202       3.35461664
C        1.22943321       3.54907028       3.35461664
C        1.22943347       2.12944215       3.35461664
C       -4.91773762       9.93739616       3.35461664
C        7.37660265       8.51776803       3.35461664
C       -0.00000038       4.25888388       3.35461664
C       -0.00000141       5.67851203       3.35461664
C       -0.00000046       1.41962854       3.35461664
C        6.14716856      10.64721000       3.35461664
C        6.14716869       7.80795418       3.35461664
C        6.14716884       6.38832605       3.35461664
C       -1.22943459       3.54907028       3.35461664
C       11.06490556       2.12944215       3.35461664
C        4.91773485       8.51776803       3.35461664
C        4.91773435       9.93739616       3.35461664
C        3.68830086      10.64720999       3.35461664
C        9.83547197       1.41962855       3.35461664
C       -2.45886952       5.67851202       3.35461664
C        9.83547075       4.25888389       3.35461664
C        3.68830067       7.80795418       3.35461664
C        3.68830082       6.38832605       3.35461664
C        2.45886657       9.93739616       3.35461664
C        8.60603693       3.54907028       3.35461664
C        8.60603706       2.12944215       3.35461664
C        2.45886647       8.51776803       3.35461664
C        7.37660439       4.25888389       3.35461664
C        7.37660419       1.41962855       3.35461664
C        7.37660258       5.67851202       3.35461664
C        1.22943288       7.80795419       3.35461664
C        1.22943278       6.38832604       3.35461664
C        1.22943166      10.64721000       3.35461664
C        6.14717009       3.54907029       3.35461664
C        6.14716952       2.12944216       3.35461664
C       -0.00000180       8.51776802       3.35461664
C       -0.00000217       9.93739616       3.35461664
C        4.91773616       1.41962855       3.35461664
C       -1.22943590      10.64720999       3.35461664
C       -1.22943561       7.80795419       3.35461664
C       -1.22943572       6.38832603       3.35461664
C       -2.45886982       8.51776802       3.35461664
C       -2.45887115       9.93739617       3.35461664
C        8.60603686       6.38832604       3.35461664
C       -3.68830364       7.80795395       3.35461664
C        4.99074609       4.26582225       6.64601813
C        3.76122989       2.13535115       6.64537109
C        3.76188061       4.97569805       6.63615159
C        2.53412715       4.26409029       6.63368489
C        2.53195150       2.84474954       6.63760155
C        2.53183990       0.00603158       6.64553354
C        1.30230356       4.97620809       6.63573515
C        1.30271032       2.13477244       6.63720515
C       -4.84539452       8.52360203       6.64638488
C        1.30287860       0.71540019       6.64313124
C        0.06958068       4.26471980       6.63496598
C        0.07244672       2.84393736       6.63838624
C        0.07298642       0.00544555       6.64429634
C        6.21943961       9.23328793       6.64565183
C        6.21919621       6.39492381       6.64667671
C       -1.15884451       4.97567341       6.63381167
C       -1.15795862       2.13510225       6.64243049
C        4.98980403       8.52387573       6.64217046
C       11.13671713       0.71447944       6.64411963
C        4.98956709       7.10406371       6.64195350
C        9.90653165       0.00541570       6.64319514
C        9.90639265       2.84526873       6.64661294
C        3.75994283       9.23350000       6.63831744
C       -2.38778602       4.26544376       6.64313591
C        3.75995686       6.39577284       6.63254946
C        8.67744207       4.97502138       6.64705645
C        8.67817236       0.71625174       6.64467284
C        8.67749762       2.13530364       6.64889695
C        2.53079167       8.52477974       6.62936914
C        2.53186252       7.10679588       6.62225094
C        7.44839619       4.26508486       6.65095725
C        1.30149037       9.23421788       6.63226894
C        7.44882719       2.84583942       6.65139695
C        1.30202709       6.39949521       6.61753574
C        7.44925832       0.00616077       6.64165656
C        6.21951916       4.97537425       6.64897292
C        6.22020482       2.13615486       6.65079487
C        0.07195947       7.10690905       6.62003232
C        0.07249378       8.52566662       6.62838934
C        6.21987006       0.71636208       6.64633932
C        4.99043789       2.84565302       6.64902169
C        4.98990763       0.00631014       6.64418927
C       -1.15660763       9.23430838       6.63867601
C       -1.15721146       6.39617684       6.62958502
C        3.76100990       0.71583971       6.64712201
C       -2.38617704       8.52493279       6.64220974
C       -2.38706263       7.10520230       6.63943861
C       -3.61598168       9.23416289       6.64581863
C       -3.61658353       6.39480686       6.64541357
C        7.44859087       7.10453163       6.64677360
Ag       3.37985112       5.87859762      10.86072592
Ag       0.18506238       2.55219175       9.91712825
Ag       1.06990222       5.03546629       9.41704157
Ag       2.51555618       3.26287714      10.98539158
O        1.87879333       6.90600630      10.03442468
O        4.43449917       4.26149442      11.68798776
H        4.41495005       4.36444816      12.65869754
157
Lattice="12.29434013 0.0 0.0 -6.14717148 10.64721006 0.0 0.0 0.0 22.0" Properties=species:S:1:pos:R:3 energy_eV=-1421.7015 mag=1.0 pbc="T T T"
C        4.91773543       4.25888390       0.00000000
C        3.68830150       2.12944215       0.00000000
C        3.68830075       4.96869795       0.00000000
C        2.45886739       4.25888389       0.00000000
C        2.45886754       2.83925621       0.00000000
C       -3.68830368      10.64720999       0.00000000
C        1.22943283       4.96869795       0.00000000
C        1.22943347       2.12944215       0.00000000
C        7.37660265       8.51776803       0.00000000
C        1.22943325       0.70981400       0.00000000
C       -0.00000038       4.25888388       0.00000000
C       -0.00000029       2.83925620       0.00000000
C        6.14716856      10.64721000       0.00000000
C        6.14716864       9.22758233       0.00000000
C        6.14716884       6.38832605       0.00000000
C       -1.22943520       4.96869795       0.00000000
C       11.06490556       2.12944215       0.00000000
C        4.91773485       8.51776803       0.00000000
C       11.06490545       0.70981400       0.00000000
C        4.91773477       7.09814011       0.00000000
C        3.68830086      10.64720999       0.00000000
C        9.83547136       2.83925621       0.00000000
C        3.68830077       9.22758233       0.00000000
C        9.83547075       4.25888389       0.00000000
C        3.68830082       6.38832605       0.00000000
C        8.60603655       4.96869795       0.00000000
C        8.60603743       0.70981401       0.00000000
C        8.60603706       2.12944215       0.00000000
C        2.45886647       8.51776803       0.00000000
C        2.45886662       7.09814011       0.00000000
C        7.37660439       4.25888389       0.00000000
C        1.22943250       9.22758233       0.00000000
C        7.37660286       2.83925621       0.00000000
C        1.22943278       6.38832604       0.00000000
C        1.22943166      10.64721000       0.00000000
C        6.14716924       4.96869795       0.00000000
C        6.14716952       2.12944216       0.00000000
C       -0.00000142       7.09814012       0.00000000
C       -0.00000180       8.51776802       0.00000000
C        6.14716893       0.70981401       0.00000000
C        4.91773579       2.83925621       0.00000000
C       -1.22943590      10.64720999       0.00000000
C       -1.22943599       9.22758233       0.00000000
C       -1.22943572       6.38832603       0.00000000
C        3.68830186       0.70981401       0.00000000
C       -2.45886982       8.51776802       0.00000000
C       -2.45887039       7.09814011       0.00000000
C       -3.68830306       9.22758233       0.00000000
C        8.60603686       6.38832604       0.00000000
C        7.37660171       7.09814011       0.00000000
C        4.91773543       4.25888390       3.35461664
C        4.91773505       5.67851202       3.35461664
C        3.68830136       3.54907028       3.35461664
C        3.68830150       2.12944215       3.35461664
C        2.45886739       4.25888389       3.35461664
C       -3.68830368      10.64720999       3.35461664
C        2.45886743       1.41962855       3.35461664
C        2.45886629       5.67851202       3.35461664
C        1.22943321       3.54907028       3.35461664
C        1.22943347       2.12944215       3.35461664
C       -4.91773762       9.93739616       3.35461664
C        7.37660265       8.51776803       3.35461664
C       -0.00000038       4.25888388       3.35461664
C       -0.00000141       5.67851203       3.35461664
C       -0.00000046       1.41962854       3.35461664
C        6.14716856      10.64721000       3.35461664
C        6.14716869       7.80795418       3.35461664
C        6.14716884       6.38832605       3.35461664
C       -1.22943459       3.54907028       3.35461664
C       11.06490556       2.12944215       3.35461664
C        4.91773485       8.51776803       3.35461664
C        4.91773435       9.93739616       3.35461664
C        3.68830086      10.64720999       3.35461664
C        9.83547197       1.41962855       3.35461664
C       -2.45886952       5.67851202       3.35461664
C        9.83547075       4.25888389       3.35461664
C        3.68830067       7.80795418       3.35461664
C        3.68830082       6.38832605       3.35461664
C        2.45886657       9.93739616       3.35461664
C        8.60603693       3.54907028       3.35461664
C        8.60603706       2.12944215       3.35461664
C        2.45886647       8.51776803       3.35461664
C        7.37660439       4.25888389       3.35461664
C        7.37660419       1.41962855       3.35461664
C        7.37660258       5.67851202       3.35461664
C        1.22943288       7.80795419       3.35461664
C        1.22943278       6.38832604       3.35461664
C        1.22943166      10.64721000       3.35461664
C        6.14717009       3.54907029       3.35461664
C        6.14716952       2.12944216       3.35461664
C       -0.00000180       8.51776802       3.35461664
C       -0.00000217       9.93739616       3.35461664
C        4.91773616       1.41962855       3.35461664
C       -1.22943590      10.64720999       3.35461664
C       -1.22943561       7.80795419       3.35461664
C       -1.22943572       6.38832603       3.35461664
C       -2.45886982       8.51776802       3.35461664
C       -2.45887115       9.93739617       3.35461664
C        8.60603686       6.38832604       3.35461664
C       -3.68830364       7.80795395       3.35461664
C        4.99123802       4.25231765       6.66688279
C        3.75383499       2.10922095       6.66378599
C        3.75938160       4.95665613       6.64556410
C        2.53117766       4.24468697       6.64070397
C        2.52760513       2.82481735       6.64734034
C       -3.61700457      10.63021117       6.64889608
C        1.30229337       4.95367539       6.64041630
C        1.30039210       2.11417673       6.64859217
C       -4.84536699       8.50309999       6.64968646
C        1.30182361       0.69467237       6.65247168
C        0.07294847       4.24404981       6.64907868
C        0.07217442       2.82455848       6.65311064
C       -6.07424375      10.63226799       6.65076872
C        6.21936177       9.21259090       6.64796251
C        6.22060539       6.37523633       6.64990986
C       -1.15601782       4.95392065       6.65378009
C       -1.15644305       2.11475791       6.65400990
C        4.99006901       8.50257533       6.64223762
C       11.13798494       0.69506966       6.65133225
C        4.99053057       7.08327052       6.64335347
C        3.76172391      10.63139687       6.64666245
C        9.90921850       2.82465095       6.65636839
C        3.76059273       9.21190774       6.63957028
C       -2.38538756       4.24443889       6.65627211
C        3.76057509       6.37491697       6.63637370
C        8.67980801       4.95414342       6.65772837
C        8.67998222       0.69400477       6.65242682
C        8.68134998       2.11346064       6.65706891
C        2.53196420       8.50196041       6.63259785
C        2.53163940       7.08337264       6.62985918
C        7.45126096       4.24455665       6.66030483
C        1.30304439       9.21051958       6.63683983
C        7.45441964       2.82467876       6.66586241
C        1.30299559       6.37333138       6.63367971
C        1.30421648      10.62924662       6.64721131
C        6.22293650       4.95641707       6.65821612
C        6.22802084       2.10987599       6.67818194
C        0.07361838       7.08258792       6.64145996
C        0.07329070       8.50155784       6.64002197
C        6.22243139       0.68984430       6.65606675
C        4.99163228       2.82454377       6.69279324
C       -1.15594600      10.62936075       6.64568276
C       -1.15631203       9.21100637       6.64551709
C       -1.15600090       6.37368488       6.64993687
C        3.75988503       0.68929626       6.64839600
C       -2.38665920       8.50244623       6.65020541
C       -2.38608974       7.08328808       6.65348444
C       -3.61617309       9.21168241       6.65059994
C       -3.61539524       6.37381565       6.65472127
C        7.44975059       7.08402446       6.65186068
Ag       4.83328649       2.66236171       9.09603286
Ag       2.92987087       3.53040734      10.79068753
Ag       1.72956253       6.34164680      10.36741626
Ag       4.83610356       1.86614376      11.59415820
O        1.13203335       4.56403012      10.94408997
O        2.37595388       8.16791917       9.89280984
H        1.59352500       8.73028221       9.73202752
157
Lattice="12.29434013 0.0 0.0 -6.14717148 10.64721006 0.0 0.0 0.0 22.0" Properties=species:S:1:pos:R:3 energy_eV=-1420.3125 mag=0.946 pbc="T T T"
C        4.91773543       4.25888390       0.00000000
C        3.68830150       2.12944215       0.00000000
C        3.68830075       4.96869795       0.00000000
C        2.45886739       4.25888389       0.00000000
C        2.45886754       2.83925621       0.00000000
C       -3.68830368      10.64720999       0.00000000
C        1.22943283       4.96869795       0.00000000
C        1.22943347       2.12944215       0.00000000
C        7.37660265       8.51776803       0.00000000
C        1.22943325       0.70981400       0.00000000
C       -0.00000038       4.25888388       0.00000000
C       -0.00000029       2.83925620       0.00000000
C        6.14716856      10.64721000       0.00000000
C        6.14716864       9.22758233       0.00000000
C        6.14716884       6.38832605       0.00000000
C       -1.22943520       4.96869795       0.00000000
C       11.06490556       2.12944215       0.00000000
C        4.91773485       8.51776803       0.00000000
C       11.06490545       0.70981400       0.00000000
C        4.91773477       7.09814011       0.00000000
C        3.68830086      10.64720999       0.00000000
C        9.83547136       2.83925621       0.00000000
C        3.68830077       9.22758233       0.00000000
C        9.83547075       4.25888389       0.00000000
C        3.68830082       6.38832605       0.00000000
C        8.60603655       4.96869795       0.00000000
C        8.60603743       0.70981401       0.00000000
C        8.60603706       2.12944215       0.00000000
C        2.45886647       8.51776803       0.00000000
C        2.45886662       7.09814011       0.00000000
C        7.37660439       4.25888389       0.00000000
C        1.22943250       9.22758233       0.00000000
C        7.37660286       2.83925621       0.00000000
C        1.22943278       6.38832604       0.00000000
C        1.22943166      10.64721000       0.00000000
C        6.14716924       4.96869795       0.00000000
C        6.14716952       2.12944216       0.00000000
C       -0.00000142       7.09814012       0.00000000
C       -0.00000180       8.51776802       0.00000000
C        6.14716893       0.70981401       0.00000000
C        4.91773579       2.83925621       0.00000000
C       -1.22943590      10.64720999       0.00000000
C       -1.22943599       9.22758233       0.00000000
C       -1.22943572       6.38832603       0.00000000
C        3.68830186       0.70981401       0.00000000
C       -2.45886982       8.51776802       0.00000000
C       -2.45887039       7.09814011       0.00000000
C       -3.68830306       9.22758233       0.00000000
C        8.60603686       6.38832604       0.00000000
C        7.37660171       7.09814011       0.00000000
C        4.91773543       4.25888390       3.35461664
C        4.91773505       5.67851202       3.35461664
C        3.68830136       3.54907028       3.35461664
C        3.68830150       2.12944215       3.35461664
C        2.45886739       4.25888389       3.35461664
C       -3.68830368      10.64720999       3.35461664
C        2.45886743       1.41962855       3.35461664
C        2.45886629       5.67851202       3.35461664
C        1.22943321       3.54907028       3.35461664
C        1.22943347       2.12944215       3.35461664
C       -4.91773762       9.93739616       3.35461664
C        7.37660265       8.51776803       3.35461664
C       -0.00000038       4.25888388       3.35461664
C       -0.00000141       5.67851203       3.35461664
C       -0.00000046       1.41962854       3.35461664
C        6.14716856      10.64721000       3.35461664
C        6.14716869       7.80795418       3.35461664
C        6.14716884       6.38832605       3.35461664
C       -1.22943459       3.54907028       3.35461664
C       11.06490556       2.12944215       3.35461664
C        4.91773485       8.51776803       3.35461664
C        4.91773435       9.93739616       3.35461664
C        3.68830086      10.64720999       3.35461664
C        9.83547197       1.41962855       3.35461664
C       -2.45886952       5.67851202       3.35461664
C        9.83547075       4.25888389       3.35461664
C        3.68830067       7.80795418       3.35461664
C        3.68830082       6.38832605       3.35461664
C        2.45886657       9.93739616       3.35461664
C        8.60603693       3.54907028       3.35461664
C        8.60603706       2.12944215       3.35461664
C        2.45886647       8.51776803       3.35461664
C        7.37660439       4.25888389       3.35461664
C        7.37660419       1.41962855       3.35461664
C        7.37660258       5.67851202       3.35461664
C        1.22943288       7.80795419       3.35461664
C        1.22943278       6.38832604       3.35461664
C        1.22943166      10.64721000       3.35461664
C        6.14717009       3.54907029       3.35461664
C        6.14716952       2.12944216       3.35461664
C       -0.00000180       8.51776802       3.35461664
C       -0.00000217       9.93739616       3.35461664
C        4.91773616       1.41962855       3.35461664
C       -1.22943590      10.64720999       3.35461664
C       -1.22943561       7.80795419       3.35461664
C       -1.22943572       6.38832603       3.35461664
C       -2.45886982       8.51776802       3.35461664
C       -2.45887115       9.93739617       3.35461664
C        8.60603686       6.38832604       3.35461664
C       -3.68830364       7.80795395       3.35461664
C        4.99048104       4.29423814       6.63547275
C        3.76151709       2.16562435       6.63269858
C        3.76207113       5.00411437       6.62405587
C        2.53264681       4.29451934       6.61270448
C        2.53309563       2.87511953       6.62128937
C        2.53201955       0.03542554       6.64356841
C        1.30281564       5.00399895       6.60048639
C        1.30354969       2.16499569       6.62560797
C       -4.84512101       8.55284964       6.65138259
C        1.30285369       0.74470322       6.63865039
C        0.07387053       4.29452415       6.60525851
C        0.07290158       2.87516863       6.61997085
C        0.07302349       0.03506727       6.64256732
C        6.21987890       9.26249470       6.64947448
C        6.21945025       6.42320949       6.64747547
C       -1.15605633       5.00392423       6.62526540
C       -1.15673471       2.16458084       6.63205978
C        4.99043311       8.55241123       6.64661693
C       11.13792055       0.74489891       6.64198222
C        4.99011416       7.13282609       6.64274182
C        9.90804327       0.03486814       6.64778460
C        9.90821541       2.87420866       6.63980079
C        3.76122764       9.26240601       6.64572978
C       -2.38655981       4.29375967       6.63848907
C        3.76118555       6.42291137       6.62693434
C        8.67860327       5.00396886       6.64756089
C        8.67873429       0.74502163       6.65042917
C        8.67844389       2.16471204       6.64859766
C        2.53200732       8.55227148       6.63635512
C        2.53217164       7.13258413       6.61997763
C        7.44872584       4.29453430       6.64953192
C        1.30237139       9.26255132       6.64096862
C        7.44895015       2.87490062       6.65101150
C        1.30252199       6.42324006       6.60397613
C        7.44920332       0.03545362       6.64955012
C        6.21936666       5.00378857       6.64491090
C        6.21905466       2.16540067       6.64795799
C        0.07330410       7.13332526       6.61612287
C        0.07257408       8.55278325       6.63347226
C        6.21983192       0.74558132       6.65001144
C        4.99048168       2.87556551       6.63769939
C        4.99053135       0.03567014       6.64725339
C       -1.15656753       9.26317739       6.64364408
C       -1.15643677       6.42445683       6.62579705
C        3.76117536       0.74591531       6.64269950
C       -2.38613946       8.55343571       6.64517995
C       -2.38613122       7.13363861       6.64123920
C       -3.61549957       9.26310658       6.64940906
C       -3.61567325       6.42360412       6.64839486
C        7.44904355       7.13315880       6.65225027
Ag       0.71032462       2.70820324       9.83523377
Ag       1.03419267       7.43319732       9.96946443
Ag      -0.42526234       5.16850611       9.89378493
Ag       2.24953386       4.97732200       9.93349798
O        4.29265026       4.49619301       9.86708470
O        4.86224030       4.49615448      11.21902394
H        5.67091544       3.96080852      11.07556209
157
Lattice="12.29434013 0.0 0.0 -6.14717148 10.64721006 0.0 0.0 0.0 22.0" Properties=species:S:1:pos:R:3 energy_eV=-1420.2837 mag=0.989 pbc="T T T"
C        4.91773543       4.25888390       0.00000000
C        3.68830150       2.12944215       0.00000000
C        3.68830075       4.96869795       0.00000000
C        2.45886739       4.25888389       0.00000000
C        2.45886754       2.83925621       0.00000000
C       -3.68830368      10.64720999       0.00000000
C        1.22943283       4.96869795       0.00000000
C        1.22943347       2.12944215       0.00000000
C        7.37660265       8.51776803       0.00000000
C        1.22943325       0.70981400       0.00000000
C       -0.00000038       4.25888388       0.00000000
C       -0.00000029       2.83925620       0.00000000
C        6.14716856      10.64721000       0.00000000
C        6.14716864       9.22758233       0.00000000
C        6.14716884       6.38832605       0.00000000
C       -1.22943520       4.96869795       0.00000000
C       11.06490556       2.12944215       0.00000000
C        4.91773485       8.51776803       0.00000000
C       11.06490545       0.70981400       0.00000000
C        4.91773477       7.09814011       0.00000000
C        3.68830086      10.64720999       0.00000000
C        9.83547136       2.83925621       0.00000000
C        3.68830077       9.22758233       0.00000000
C        9.83547075       4.25888389       0.00000000
C        3.68830082       6.38832605       0.00000000
C        8.60603655       4.96869795       0.00000000
C        8.60603743       0.70981401       0.00000000
C        8.60603706       2.12944215       0.00000000
C        2.45886647       8.51776803       0.00000000
C        2.45886662       7.09814011       0.00000000
C        7.37660439       4.25888389       0.00000000
C        1.22943250       9.22758233       0.00000000
C        7.37660286       2.83925621       0.00000000
C        1.22943278       6.38832604       0.00000000
C        1.22943166      10.64721000       0.00000000
C        6.14716924       4.96869795       0.00000000
C        6.14716952       2.12944216       0.00000000
C       -0.00000142       7.09814012       0.00000000
C       -0.00000180       8.51776802       0.00000000
C        6.14716893       0.70981401       0.00000000
C        4.91773579       2.83925621       0.00000000
C       -1.22943590      10.64720999       0.00000000
C       -1.22943599       9.22758233       0.00000000
C       -1.22943572       6.38832603       0.00000000
C        3.68830186       0.70981401       0.00000000
C       -2.45886982       8.51776802       0.00000000
C       -2.45887039       7.09814011       0.00000000
C       -3.68830306       9.22758233       0.00000000
C        8.60603686       6.38832604       0.00000000
C        7.37660171       7.09814011       0.00000000
C        4.91773543       4.25888390       3.35461664
C        4.91773505       5.67851202       3.35461664
C        3.68830136       3.54907028       3.35461664
C        3.68830150       2.12944215       3.35461664
C        2.45886739       4.25888389       3.35461664
C       -3.68830368      10.64720999       3.35461664
C        2.45886743       1.41962855       3.35461664
C        2.45886629       5.67851202       3.35461664
C        1.22943321       3.54907028       3.35461664
C        1.22943347       2.12944215       3.35461664
C       -4.91773762       9.93739616       3.35461664
C        7.37660265       8.51776803       3.35461664
C       -0.00000038       4.25888388       3.35461664
C       -0.00000141       5.67851203       3.35461664
C       -0.00000046       1.41962854       3.35461664
C        6.14716856      10.64721000       3.35461664
C        6.14716869       7.80795418       3.35461664
C        6.14716884       6.38832605       3.35461664
C       -1.22943459       3.54907028       3.35461664
C       11.06490556       2.12944215       3.35461664
C        4.91773485       8.51776803       3.35461664
C        4.91773435       9.93739616       3.35461664
C        3.68830086      10.64720999       3.35461664