155
Lattice="12.29434013 0.0 0.0 -6.14717148 10.64721006 0.0 0.0 0.0 22.0" Properties=species:S:1:pos:R:3 energy_eV=-1411.507 mag=-0.0 pbc="T T T"
C        2.45886698       8.51776817       0.00000000
C        9.83547186       0.00000016       0.00000000
C        1.22943253       9.22758264       0.00000000
C        7.37660416       0.00000013       0.00000000
C        8.60603776       0.70981401       0.00000000
C       -1.22943434       2.12944225       0.00000000
C        6.14716978       0.70981449       0.00000000
C        8.60603756       2.12944218       0.00000000
C       -0.00000069       4.25888430       0.00000000
C        9.83547138       2.83925661       0.00000000
C        6.14717000       2.12944192       0.00000000
C        7.37660356       2.83925585       0.00000000
C       -2.45886859       4.25888414       0.00000000
C       -1.22943502       4.96869807       0.00000000
C        1.22943298       6.38832636       0.00000000
C        4.91773547       2.83925652       0.00000000
C        7.37660325       4.25888419       0.00000000
C       -1.22943487       6.38832611       0.00000000
C        8.60603714       4.96869852       0.00000000
C       -0.00000118       7.09814031       0.00000000
C       -3.68830270       6.38832586       0.00000000
C        6.14716905       4.96869825       0.00000000
C       -2.45886923       7.09813994       0.00000000
C        4.91773521       4.25888478       0.00000000
C       -0.00000133       8.51776838       0.00000000
C        3.68830100       4.96869883       0.00000000
C        7.37660285       7.09814053       0.00000000
C        6.14716873       6.38832661       0.00000000
C       -2.45886934       8.51776843       0.00000000
C       -1.22943553       9.22758243       0.00000000
C        3.68830175       6.38832535       0.00000000
C       -3.68830365       9.22758216       0.00000000
C        4.91773452       7.09814068       0.00000000
C        4.91773586       0.00000033       0.00000000
C       -4.91773759       8.51776890       0.00000000
C        2.45886707       7.09814022       0.00000000
C        4.91773467       8.51776822       0.00000000
C        3.68830165       0.70981439       0.00000000
C        2.45886773       0.00000060       0.00000000
C        6.14716832       9.22758296       0.00000000
C        3.68830069       9.22758186       0.00000000
C       -0.00000016       0.00000045       0.00000000
C        1.22943331       0.70981453       0.00000000
C        3.68830133       2.12944276       0.00000000
C       11.06490598       0.70981408       0.00000000
C        1.22943344       2.12944261       0.00000000
C        2.45886687       2.83925723       0.00000000
C       -0.00000052       2.83925572       0.00000000
C        2.45886726       4.25888436       0.00000000
C        1.22943258       4.96869923       0.00000000
C        2.45886698       8.51776817       3.35461664
C        1.22943285       7.80795427       3.35461664
C        2.45886636       9.93739611       3.35461664
C        9.83547186       0.00000016       3.35461664
C        7.37660416       0.00000013       3.35461664
C       -1.22943434       2.12944225       3.35461664
C        9.83547124       1.41962810       3.35461664
C       -0.00000180       9.93739690       3.35461664
C        7.37660350       1.41962817       3.35461664
C        8.60603756       2.12944218       3.35461664
C       -1.22943471       3.54907020       3.35461664
C       -0.00000069       4.25888430       3.35461664
C        6.14717000       2.12944192       3.35461664
C        4.91773555       1.41962858       3.35461664
C        8.60603701       3.54906999       3.35461664
C       -2.45886859       4.25888414       3.35461664
C       -0.00000105       5.67851227       3.35461664
C        1.22943298       6.38832636       3.35461664
C        6.14716931       3.54906999       3.35461664
C        7.37660325       4.25888419       3.35461664
C       -1.22943487       6.38832611       3.35461664
C       -2.45886906       5.67851231       3.35461664
C       -3.68830270       6.38832586       3.35461664
C        7.37660288       5.67851171       3.35461664
C        3.68830121       3.54907067       3.35461664
C        4.91773521       4.25888478       3.35461664
C       -1.22943533       7.80795427       3.35461664
C       -0.00000133       8.51776838       3.35461664
C       -3.68830323       7.80795411       3.35461664
C        4.91773472       5.67851251       3.35461664
C        6.14716873       6.38832661       3.35461664
C       -2.45886934       8.51776843       3.35461664
C        3.68830175       6.38832535       3.35461664
C        6.14716871       7.80795352       3.35461664
C        2.45886691       5.67851268       3.35461664
C       -2.45886951       9.93739608       3.35461664
C        4.91773586       0.00000033       3.35461664
C       -4.91773759       8.51776890       3.35461664
C        3.68830102       7.80795349       3.35461664
C        4.91773467       8.51776822       3.35461664
C        2.45886773       0.00000060       3.35461664
C       -4.91773788       9.93739675       3.35461664
C        4.91773441       9.93739553       3.35461664
C       -0.00000016       0.00000045       3.35461664
C        2.45886745       1.41962844       3.35461664
C        3.68830133       2.12944276       3.35461664
C        1.22943344       2.12944261       3.35461664
C       -0.00000118       1.41962953       3.35461664
C        2.45886726       4.25888436       3.35461664
C        1.22943333       3.54907058       3.35461664
C        2.45822395       8.42474239       6.66318429
C        3.68812581      10.54667891       6.64305262
C        1.22519940       9.12820957       6.64286519
C        1.22848546      10.54572332       6.64002879
C        8.60512902       0.60706512       6.64710673
C       11.06274993       2.02648129       6.63760341
C        6.14642049       0.60493913       6.63473263
C        8.60533087       2.02632021       6.64713756
C       -0.00472524       4.15314547       6.63515634
C        9.83419785       2.73644182       6.64501621
C        6.14832727       2.02267954       6.64528608
C        7.37707162       2.73520724       6.65065838
C        9.83443029       4.15568861       6.64046539
C       -1.23208817       4.86531068       6.63755726
C        1.22023657       6.28093278       6.66067898
C        4.91839250       2.72482140       6.66311025
C        7.37973528       4.15545657       6.65106179
C       -1.23264033       6.28472865       6.63399543
C        8.60714394       4.86621100       6.63957831
C       -0.00546260       6.99556202       6.63800096
C        8.60630590       6.28567761       6.63296723
C        6.15588273       4.86854393       6.67237786
C       -2.45997046       6.99544112       6.63312537
C        4.92493697       4.14978259       6.72059940
C       -0.00243382       8.41557700       6.63322427
C        3.68534164       4.86258582       6.72792921
C        7.37837778       6.99603678       6.62854953
C        6.15159149       6.28621835       6.64011714
C       -2.45950727       8.41436716       6.63089885
C       -1.23091776       9.12392580       6.63116035
C        3.69645679       6.29119582       6.68822341
C       -3.68924423       9.12420277       6.62751652
C        4.92294628       6.99860656       6.64338101
C       -1.23020116      10.54291599       6.62905215
C        7.37663584       8.41557275       6.62562120
C        2.45700656       6.99756127       6.68999068
C        4.91918769       8.41790168       6.63219635
C        3.68722630       0.60401222       6.62303331
C       -3.68999729      10.54300214       6.62256713
C        6.14740872       9.12611357       6.62768993
C        3.69117569       9.12900978       6.64614313
C        6.14615049      10.54456659       6.62845711
C        1.22763096       0.60534178       6.62383492
C        3.68718023       2.02153001       6.63088295
C       11.06387184       0.60784506       6.63589004
C        1.22604965       2.02416852       6.62458215
C        2.45503762       2.73120256       6.63363481
C       -0.00286428       2.73449888       6.63321208
C        2.44889938       4.14829722       6.66730223
C        1.22286774       4.86045709       6.64805995
Ag       1.25404159       7.78340812      11.42290782
Ag       4.13627755       4.50819520       9.03723499
Ag       2.94990395       5.73543758      11.32700129
Ag       2.34880288       7.04214000       9.10846877
O        4.26007034       4.16706514      11.02995492
155
Lattice="12.29434013 0.0 0.0 -6.14717148 10.64721006 0.0 0.0 0.0 22.0" Properties=species:S:1:pos:R:3 energy_eV=-1411.2742 mag=-0.0 pbc="T T T"
C        2.45886698       8.51776817       0.00000000
C        9.83547186       0.00000016       0.00000000
C        1.22943253       9.22758264       0.00000000
C        7.37660416       0.00000013       0.00000000
C        8.60603776       0.70981401       0.00000000
C       -1.22943434       2.12944225       0.00000000
C        6.14716978       0.70981449       0.00000000
C        8.60603756       2.12944218       0.00000000
C       -0.00000069       4.25888430       0.00000000
C        9.83547138       2.83925661       0.00000000
C        6.14717000       2.12944192       0.00000000
C        7.37660356       2.83925585       0.00000000
C       -2.45886859       4.25888414       0.00000000
C       -1.22943502       4.96869807       0.00000000
C        1.22943298       6.38832636       0.00000000
C        4.91773547       2.83925652       0.00000000
C        7.37660325       4.25888419       0.00000000
C       -1.22943487       6.38832611       0.00000000
C        8.60603714       4.96869852       0.00000000
C       -0.00000118       7.09814031       0.00000000
C       -3.68830270       6.38832586       0.00000000
C        6.14716905       4.96869825       0.00000000
C       -2.45886923       7.09813994       0.00000000
C        4.91773521       4.25888478       0.00000000
C       -0.00000133       8.51776838       0.00000000
C        3.68830100       4.96869883       0.00000000
C        7.37660285       7.09814053       0.00000000
C        6.14716873       6.38832661       0.00000000
C       -2.45886934       8.51776843       0.00000000
C       -1.22943553       9.22758243       0.00000000
C        3.68830175       6.38832535       0.00000000
C       -3.68830365       9.22758216       0.00000000
C        4.91773452       7.09814068       0.00000000
C        4.91773586       0.00000033       0.00000000
C       -4.91773759       8.51776890       0.00000000
C        2.45886707       7.09814022       0.00000000
C        4.91773467       8.51776822       0.00000000
C        3.68830165       0.70981439       0.00000000
C        2.45886773       0.00000060       0.00000000
C        6.14716832       9.22758296       0.00000000
C        3.68830069       9.22758186       0.00000000
C       -0.00000016       0.00000045       0.00000000
C        1.22943331       0.70981453       0.00000000
C        3.68830133       2.12944276       0.00000000
C       11.06490598       0.70981408       0.00000000
C        1.22943344       2.12944261       0.00000000
C        2.45886687       2.83925723       0.00000000
C       -0.00000052       2.83925572       0.00000000
C        2.45886726       4.25888436       0.00000000
C        1.22943258       4.96869923       0.00000000
C        2.45886698       8.51776817       3.35461664
C        1.22943285       7.80795427       3.35461664
C        2.45886636       9.93739611       3.35461664
C        9.83547186       0.00000016       3.35461664
C        7.37660416       0.00000013       3.35461664
C       -1.22943434       2.12944225       3.35461664
C        9.83547124       1.41962810       3.35461664
C       -0.00000180       9.93739690       3.35461664
C        7.37660350       1.41962817       3.35461664
C        8.60603756       2.12944218       3.35461664
C       -1.22943471       3.54907020       3.35461664
C       -0.00000069       4.25888430       3.35461664
C        6.14717000       2.12944192       3.35461664
C        4.91773555       1.41962858       3.35461664
C        8.60603701       3.54906999       3.35461664
C       -2.45886859       4.25888414       3.35461664
C       -0.00000105       5.67851227       3.35461664
C        1.22943298       6.38832636       3.35461664
C        6.14716931       3.54906999       3.35461664
C        7.37660325       4.25888419       3.35461664
C       -1.22943487       6.38832611       3.35461664
C       -2.45886906       5.67851231       3.35461664
C       -3.68830270       6.38832586       3.35461664
C        7.37660288       5.67851171       3.35461664
C        3.68830121       3.54907067       3.35461664
C        4.91773521       4.25888478       3.35461664
C       -1.22943533       7.80795427       3.35461664
C       -0.00000133       8.51776838       3.35461664
C       -3.68830323       7.80795411       3.35461664
C        4.91773472       5.67851251       3.35461664
C        6.14716873       6.38832661       3.35461664
C       -2.45886934       8.51776843       3.35461664
C        3.68830175       6.38832535       3.35461664
C        6.14716871       7.80795352       3.35461664
C        2.45886691       5.67851268       3.35461664
C       -2.45886951       9.93739608       3.35461664
C        4.91773586       0.00000033       3.35461664
C       -4.91773759       8.51776890       3.35461664
C        3.68830102       7.80795349       3.35461664
C        4.91773467       8.51776822       3.35461664
C        2.45886773       0.00000060       3.35461664
C       -4.91773788       9.93739675       3.35461664
C        4.91773441       9.93739553       3.35461664
C       -0.00000016       0.00000045       3.35461664
C        2.45886745       1.41962844       3.35461664
C        3.68830133       2.12944276       3.35461664
C        1.22943344       2.12944261       3.35461664
C       -0.00000118       1.41962953       3.35461664
C        2.45886726       4.25888436       3.35461664
C        1.22943333       3.54907058       3.35461664
C        2.45601165       8.41335896       6.61711852
C        3.68405377      10.54048540       6.62636780
C        1.22528330       9.12197227       6.62676469
C        1.22546044      10.54146753       6.63441763
C        8.60245125       0.60280113       6.63355042
C       11.05933571       2.02040568       6.63191080
C        6.14319848       0.60324128       6.63983666
C        8.60164704       2.02276767       6.63502847
C       -0.01244989       4.14753486       6.66032340
C        9.83063802       2.73193870       6.63440665
C        6.14361489       2.02316566       6.63874571
C        7.37257461       2.73315514       6.63563440
C        9.82880703       4.15204828       6.62955330
C       -1.23946299       4.86377266       6.63328877
C        1.22542893       6.29314141       6.63114152
C        4.91468052       2.73227149       6.63556781
C        7.37232652       4.15224081       6.62813437
C       -1.23560321       6.28298786       6.61718146
C        8.60047667       4.86227976       6.62601330
C       -0.00727608       6.99590919       6.61676978
C        8.60139030       6.28163907       6.62394057
C        6.14434308       4.86223459       6.62379365
C       -2.46410863       6.99206554       6.62177878
C        4.91610109       4.15241651       6.62523792
C       -0.00488778       8.41399170       6.62118774
C        3.68909777       4.86312972       6.61916596
C        7.37235344       6.99078836       6.62449534
C        6.14340572       6.28133400       6.61809890
C       -2.46295090       8.41166379       6.62742464
C       -1.23412121       9.12236670       6.62954888
C        3.68501655       6.28224699       6.60844232
C       -3.69196830       9.12100767       6.63256405
C        4.91431802       6.99158294       6.61492116
C       -1.23334025      10.54091778       6.63650067
C        7.37220743       8.41113661       6.62801128
C        2.45796714       6.99566277       6.61112496
C        4.91343014       8.41175386       6.61789994
C        3.68478936       0.60208297       6.63554881
C       -3.69217818      10.54029608       6.63240846
C        6.14273734       9.12116833       6.62566618
C        3.68494908       9.12193679       6.61989990
C        6.14273700      10.54002978       6.62759223
C        1.22515032       0.60159758       6.62889276
C        3.68591515       2.02103493       6.63205364
C       11.06013579       0.60150902       6.62832106
C        1.22523937       2.02059205       6.62668393
C        2.45648169       2.72773572       6.62965195
C       -0.00579226       2.72651673       6.63795853
C        2.46399897       4.14698127       6.64105383
C        1.22609200       4.86250988       6.67066100
Ag       1.17902182       4.87409678       8.96894823
Ag       3.63542011       5.09528625      10.61019934
Ag       2.06756855       7.24205236      10.50360845
Ag       4.72235471       7.50828552      10.02689122
O        1.37157466       5.10086454      10.98202470
155
Lattice="12.29434013 0.0 0.0 -6.14717148 10.64721006 0.0 0.0 0.0 22.0" Properties=species:S:1:pos:R:3 energy_eV=-1411.1791 mag=0.0 pbc="T T T"
C        2.45886698       8.51776817       0.00000000
C        9.83547186       0.00000016       0.00000000
C        1.22943253       9.22758264       0.00000000
C        7.37660416       0.00000013       0.00000000
C        8.60603776       0.70981401       0.00000000
C       -1.22943434       2.12944225       0.00000000
C        6.14716978       0.70981449       0.00000000
C        8.60603756       2.12944218       0.00000000
C       -0.00000069       4.25888430       0.00000000
C        9.83547138       2.83925661       0.00000000
C        6.14717000       2.12944192       0.00000000
C        7.37660356       2.83925585       0.00000000
C       -2.45886859       4.25888414       0.00000000
C       -1.22943502       4.96869807       0.00000000
C        1.22943298       6.38832636       0.00000000
C        4.91773547       2.83925652       0.00000000
C        7.37660325       4.25888419       0.00000000
C       -1.22943487       6.38832611       0.00000000
C        8.60603714       4.96869852       0.00000000
C       -0.00000118       7.09814031       0.00000000
C       -3.68830270       6.38832586       0.00000000
C        6.14716905       4.96869825       0.00000000
C       -2.45886923       7.09813994       0.00000000
C        4.91773521       4.25888478       0.00000000
C       -0.00000133       8.51776838       0.00000000
C        3.68830100       4.96869883       0.00000000
C        7.37660285       7.09814053       0.00000000
C        6.14716873       6.38832661       0.00000000
C       -2.45886934       8.51776843       0.00000000
C       -1.22943553       9.22758243       0.00000000
C        3.68830175       6.38832535       0.00000000
C       -3.68830365       9.22758216       0.00000000
C        4.91773452       7.09814068       0.00000000
C        4.91773586       0.00000033       0.00000000
C       -4.91773759       8.51776890       0.00000000
C        2.45886707       7.09814022       0.00000000
C        4.91773467       8.51776822       0.00000000
C        3.68830165       0.70981439       0.00000000
C        2.45886773       0.00000060       0.00000000
C        6.14716832       9.22758296       0.00000000
C        3.68830069       9.22758186       0.00000000
C       -0.00000016       0.00000045       0.00000000
C        1.22943331       0.70981453       0.00000000
C        3.68830133       2.12944276       0.00000000
C       11.06490598       0.70981408       0.00000000
C        1.22943344       2.12944261       0.00000000
C        2.45886687       2.83925723       0.00000000
C       -0.00000052       2.83925572       0.00000000
C        2.45886726       4.25888436       0.00000000
C        1.22943258       4.96869923       0.00000000
C        2.45886698       8.51776817       3.35461664
C        1.22943285       7.80795427       3.35461664
C        2.45886636       9.93739611       3.35461664
C        9.83547186       0.00000016       3.35461664
C        7.37660416       0.00000013       3.35461664
C       -1.22943434       2.12944225       3.35461664
C        9.83547124       1.41962810       3.35461664
C       -0.00000180       9.93739690       3.35461664
C        7.37660350       1.41962817       3.35461664
C        8.60603756       2.12944218       3.35461664
C       -1.22943471       3.54907020       3.35461664
C       -0.00000069       4.25888430       3.35461664
C        6.14717000       2.12944192       3.35461664
C        4.91773555       1.41962858       3.35461664
C        8.60603701       3.54906999       3.35461664
C       -2.45886859       4.25888414       3.35461664
C       -0.00000105       5.67851227       3.35461664
C        1.22943298       6.38832636       3.35461664
C        6.14716931       3.54906999       3.35461664
C        7.37660325       4.25888419       3.35461664
C       -1.22943487       6.38832611       3.35461664
C       -2.45886906       5.67851231       3.35461664
C       -3.68830270       6.38832586       3.35461664
C        7.37660288       5.67851171       3.35461664
C        3.68830121       3.54907067       3.35461664
C        4.91773521       4.25888478       3.35461664
C       -1.22943533       7.80795427       3.35461664
C       -0.00000133       8.51776838       3.35461664
C       -3.68830323       7.80795411       3.35461664
C        4.91773472       5.67851251       3.35461664
C        6.14716873       6.38832661       3.35461664
C       -2.45886934       8.51776843       3.35461664
C        3.68830175       6.38832535       3.35461664
C        6.14716871       7.80795352       3.35461664
C        2.45886691       5.67851268       3.35461664
C       -2.45886951       9.93739608       3.35461664
C        4.91773586       0.00000033       3.35461664
C       -4.91773759       8.51776890       3.35461664
C        3.68830102       7.80795349       3.35461664
C        4.91773467       8.51776822       3.35461664
C        2.45886773       0.00000060       3.35461664
C       -4.91773788       9.93739675       3.35461664
C        4.91773441       9.93739553       3.35461664
C       -0.00000016       0.00000045       3.35461664
C        2.45886745       1.41962844       3.35461664
C        3.68830133       2.12944276       3.35461664
C        1.22943344       2.12944261       3.35461664
C       -0.00000118       1.41962953       3.35461664
C        2.45886726       4.25888436       3.35461664
C        1.22943333       3.54907058       3.35461664
C        2.42070274       8.45748398       6.63113952
C        3.65007657      10.58779361       6.63945818
C        1.19038278       9.16703371       6.63598331
C        1.19101123      10.58666317       6.64017916
C        8.56732828       0.64916772       6.64071587
C       11.02771435       2.07065354       6.62654747
C        6.10842256       0.64797579       6.64254495
C        8.56812569       2.06799242       6.64000329
C       -0.03699925       4.19923938       6.60776132
C        9.79753717       2.77846152       6.63320288
C        6.10929056       2.06765530       6.64472583
C        7.33876276       2.77712733       6.64349428
C        9.79782337       4.19813407       6.63044467
C       -1.26715884       4.90791023       6.62226419
C        1.19162160       6.32853950       6.60542307
C        4.88011960       2.77824226       6.63766821
C        7.33920265       4.19687603       6.64135959
C       -1.26742378       6.32759302       6.62795804
C        8.56812020       4.90707207       6.63864861
C       -0.03812724       7.03775647       6.62424742
C        8.56820651       6.32661806       6.64194313
C        6.10979823       4.90706485       6.63603931
C       -2.49715689       7.03696508       6.63941770
C        4.87916135       4.19957689       6.62129690
C       -0.03884887       8.45729506       6.63300828
C        3.64870878       4.90937656       6.59214227
C        7.33998122       7.03792388       6.64754468
C        6.11059045       6.32752921       6.64145104
C       -2.49746184       8.45673918       6.64285777
C       -1.26843948       9.16644148       6.63952933
C        3.64783515       6.32874741       6.60255150
C       -3.72684335       9.16698815       6.64537213
C        4.87933159       7.03904577       6.63633778
C       -1.26822155      10.58560391       6.64055678
C        7.33862564       8.45755598       6.64622594
C        2.41995030       7.03850278       6.60651016
C        4.88025401       8.46009733       6.63869339
C        3.64919637       0.64828534       6.63746770
C       -3.72743962      10.58703899       6.63588614
C        6.10947759       9.16835631       6.64112318
C        3.65080643       9.16799887       6.63930455
C        6.10989935      10.58801015       6.63227427
C        1.19157060       0.65101128       6.62591846
C        3.64873345       2.06883467       6.62922328
C       11.02721866       0.65045465       6.63357084
C        1.19059754       2.07041701       6.60938832
C        2.41884418       2.78060645       6.60413149
C       -0.03724465       2.78041958       6.61249662
C        2.41937996       4.20030350       6.58507511
C        1.19121255       4.90914215       6.59451113
Ag       2.11292779       5.77889445      10.36181147
Ag       2.86146535       8.33902049      10.12361600
Ag       3.50773745       3.42204290       9.67036045
Ag       4.56828878       6.33964870       9.56098486
O        1.66197395       3.76978412      10.50147203
155
Lattice="12.29434013 0.0 0.0 -6.14717148 10.64721006 0.0 0.0 0.0 22.0" Properties=species:S:1:pos:R:3 energy_eV=-1411.1281 mag=-0.0 pbc="T T T"
C        2.45886698       8.51776817       0.00000000
C        9.83547186       0.00000016       0.00000000
C        1.22943253       9.22758264       0.00000000
C        7.37660416       0.00000013       0.00000000
C        8.60603776       0.70981401       0.00000000
C       -1.22943434       2.12944225       0.00000000
C        6.14716978       0.70981449       0.00000000
C        8.60603756       2.12944218       0.00000000
C       -0.00000069       4.25888430       0.00000000
C        9.83547138       2.83925661       0.00000000
C        6.14717000       2.12944192       0.00000000
C        7.37660356       2.83925585       0.00000000
C       -2.45886859       4.25888414       0.00000000
C       -1.22943502       4.96869807       0.00000000
C        1.22943298       6.38832636       0.00000000
C        4.91773547       2.83925652       0.00000000
C        7.37660325       4.25888419       0.00000000
C       -1.22943487       6.38832611       0.00000000
C        8.60603714       4.96869852       0.00000000
C       -0.00000118       7.09814031       0.00000000
C       -3.68830270       6.38832586       0.00000000
C        6.14716905       4.96869825       0.00000000
C       -2.45886923       7.09813994       0.00000000
C        4.91773521       4.25888478       0.00000000
C       -0.00000133       8.51776838       0.00000000
C        3.68830100       4.96869883       0.00000000
C        7.37660285       7.09814053       0.00000000
C        6.14716873       6.38832661       0.00000000
C       -2.45886934       8.51776843       0.00000000
C       -1.22943553       9.22758243       0.00000000
C        3.68830175       6.38832535       0.00000000
C       -3.68830365       9.22758216       0.00000000
C        4.91773452       7.09814068       0.00000000
C        4.91773586       0.00000033       0.00000000
C       -4.91773759       8.51776890       0.00000000
C        2.45886707       7.09814022       0.00000000
C        4.91773467       8.51776822       0.00000000
C        3.68830165       0.70981439       0.00000000
C        2.45886773       0.00000060       0.00000000
C        6.14716832       9.22758296       0.00000000
C        3.68830069       9.22758186       0.00000000
C       -0.00000016       0.00000045       0.00000000
C        1.22943331       0.70981453       0.00000000
C        3.68830133       2.12944276       0.00000000
C       11.06490598       0.70981408       0.00000000
C        1.22943344       2.12944261       0.00000000
C        2.45886687       2.83925723       0.00000000
C       -0.00000052       2.83925572       0.00000000
C        2.45886726       4.25888436       0.00000000
C        1.22943258       4.96869923       0.00000000
C        2.45886698       8.51776817       3.35461664
C        1.22943285       7.80795427       3.35461664
C        2.45886636       9.93739611       3.35461664
C        9.83547186       0.00000016       3.35461664
C        7.37660416       0.00000013       3.35461664
C       -1.22943434       2.12944225       3.35461664
C        9.83547124       1.41962810       3.35461664
C       -0.00000180       9.93739690       3.35461664
C        7.37660350       1.41962817       3.35461664
C        8.60603756       2.12944218       3.35461664
C       -1.22943471       3.54907020       3.35461664
C       -0.00000069       4.25888430       3.35461664
C        6.14717000       2.12944192       3.35461664
C        4.91773555       1.41962858       3.35461664
C        8.60603701       3.54906999       3.35461664
C       -2.45886859       4.25888414       3.35461664
C       -0.00000105       5.67851227       3.35461664
C        1.22943298       6.38832636       3.35461664
C        6.14716931       3.54906999       3.35461664
C        7.37660325       4.25888419       3.35461664
C       -1.22943487       6.38832611       3.35461664
C       -2.45886906       5.67851231       3.35461664
C       -3.68830270       6.38832586       3.35461664
C        7.37660288       5.67851171       3.35461664
C        3.68830121       3.54907067       3.35461664
C        4.91773521       4.25888478       3.35461664
C       -1.22943533       7.80795427       3.35461664
C       -0.00000133       8.51776838       3.35461664
C       -3.68830323       7.80795411       3.35461664