156
Lattice="12.29434013 0.0 0.0 -6.14717148 10.64721006 0.0 0.0 0.0 22.0" Properties=species:S:1:pos:R:3 energy_eV=-1416.0812 mag=0.9964 pbc="T T T"
C        6.14716986       2.12944214       0.00000000
C        7.37660326       4.25888418       0.00000000
C        4.91773541       2.83925659       0.00000000
C        4.91773557       4.25888415       0.00000000
C        6.14716917       4.96869803       0.00000000
C       -3.68830294       6.38832627       0.00000000
C        3.68830118       4.96869851       0.00000000
C        6.14716897       6.38832620       0.00000000
C       -2.45886928       8.51776833       0.00000000
C        7.37660279       7.09814063       0.00000000
C        3.68830141       6.38832594       0.00000000
C        4.91773498       7.09813987       0.00000000
C       -4.91773716       8.51776817       0.00000000
C       -3.68830360       9.22758209       0.00000000
C        4.91773585       0.00000033       0.00000000
C        2.45886688       7.09814053       0.00000000
C        4.91773468       8.51776822       0.00000000
C        2.45886802       0.00000007       0.00000000
C        6.14716856       9.22758254       0.00000000
C        3.68830171       0.70981427       0.00000000
C       -6.14717129      10.64720988       0.00000000
C        3.68830047       9.22758227       0.00000000
C        1.22943366       0.70981390       0.00000000
C        2.45886662       8.51776881       0.00000000
C        3.68830157       2.12944234       0.00000000
C        1.22943240       9.22758284       0.00000000
C       11.06490574       0.70981449       0.00000000
C        9.83547161       0.00000058       0.00000000
C        1.22943355       2.12944239       0.00000000
C        2.45886736       2.83925639       0.00000000
C        1.22943315      10.64720936       0.00000000
C       -0.00000075       2.83925612       0.00000000
C        8.60603739       0.70981464       0.00000000
C        2.45886728       4.25888435       0.00000000
C       -1.22943470       2.12944286       0.00000000
C        6.14716994       0.70981418       0.00000000
C        8.60603756       2.12944217       0.00000000
C        1.22943306       4.96869841       0.00000000
C       -0.00000087       4.25888462       0.00000000
C        9.83547120       2.83925691       0.00000000
C        7.37660359       2.83925581       0.00000000
C       -2.45886876       4.25888446       0.00000000
C       -1.22943529       4.96869854       0.00000000
C        1.22943273       6.38832678       0.00000000
C        8.60603739       4.96869809       0.00000000
C       -1.22943516       6.38832662       0.00000000
C       -0.00000172       7.09814125       0.00000000
C       -2.45886909       7.09813974       0.00000000
C       -0.00000132       8.51776838       0.00000000
C       -1.22943600       9.22758325       0.00000000
C        6.14716986       2.12944214       3.35461664
C        4.91773573       1.41962823       3.35461664
C        6.14716926       3.54907007       3.35461664
C        7.37660326       4.25888418       3.35461664
C        4.91773557       4.25888415       3.35461664
C       -3.68830294       6.38832627       3.35461664
C        7.37660265       5.67851212       3.35461664
C        3.68830108       3.54907086       3.35461664
C        4.91773491       5.67851218       3.35461664
C        6.14716897       6.38832620       3.35461664
C       -3.68830328       7.80795422       3.35461664
C       -2.45886928       8.51776833       3.35461664
C        3.68830141       6.38832594       3.35461664
C        2.45886695       5.67851259       3.35461664
C        6.14716843       7.80795401       3.35461664
C       -4.91773716       8.51776817       3.35461664
C       -2.45886963       9.93739629       3.35461664
C        4.91773585       0.00000033       3.35461664
C        3.68830073       7.80795400       3.35461664
C        4.91773468       8.51776822       3.35461664
C        2.45886802       0.00000007       3.35461664
C       -4.91773764       9.93739633       3.35461664
C       -6.14717129      10.64720988       3.35461664
C        4.91773430       9.93739573       3.35461664
C        1.22943260       7.80795468       3.35461664
C        2.45886662       8.51776881       3.35461664
C        2.45886755       1.41962823       3.35461664
C        3.68830157       2.12944234       3.35461664
C       -0.00000034       1.41962807       3.35461664
C        2.45886613       9.93739652       3.35461664
C        9.83547161       0.00000058       3.35461664
C        1.22943355       2.12944239       3.35461664
C        1.22943315      10.64720936       3.35461664
C        9.83547159       1.41962748       3.35461664
C       -0.00000168       9.93739669       3.35461664
C        1.22943339       3.54907003       3.35461664
C        2.45886728       4.25888435       3.35461664
C       -1.22943470       2.12944286       3.35461664
C        7.37660390       1.41962745       3.35461664
C        8.60603756       2.12944217       3.35461664
C       -0.00000087       4.25888462       3.35461664
C       -1.22943500       3.54907070       3.35461664
C        8.60603731       3.54906948       3.35461664
C       -2.45886876       4.25888446       3.35461664
C       -0.00000116       5.67851245       3.35461664
C        1.22943273       6.38832678       3.35461664
C       -1.22943516       6.38832662       3.35461664
C       -2.45886976       5.67851354       3.35461664
C       -0.00000132       8.51776838       3.35461664
C       -1.22943524       7.80795459       3.35461664
C        6.12737316       2.10305087       6.65285245
C        7.35693958       4.23256402       6.65226093
C        4.89783591       2.81263851       6.63862118
C        4.89810790       4.23268362       6.62248345
C        6.12775762       4.94239461       6.63785460
C        8.58642785       6.36214757       6.65006068
C        3.66854392       4.94242619       6.59615523
C        6.12803666       6.36186308       6.63925988
C       -2.47895158       8.49145038       6.64625035
C        7.35715364       7.07198542       6.65116700
C        3.66800561       6.36146197       6.59286811
C        4.89762769       7.07182982       6.62543821
C        7.35674245       8.49143460       6.65311947
C       -3.70828799       9.20122522       6.65573956
C       -1.24921739      10.62079572       6.65083425
C        2.43869133       7.07091965       6.58519864
C        4.89771112       8.49180935       6.63464541
C       -3.70825026      10.62090238       6.65374661
C        6.12740066       9.20128631       6.65077772
C        3.66835703       0.68370491       6.65153794
C        6.12743119      10.62091447       6.65347981
C        3.66858704       9.20114744       6.63331432
C        1.20956114       0.68367082       6.65133396
C        2.43911646       8.49104462       6.61540431
C        3.66839043       2.10308793       6.63778377
C        1.20940576       9.20120965       6.62749887
C       11.04526686       0.68358634       6.65445891
C        3.66842153      10.62069964       6.64997336
C        1.20951169       2.10326251       6.63535318
C        2.43901271       2.81279439       6.62345396
C        1.20959614      10.62065079       6.64825255
C       -0.01974881       2.81313627       6.63274796
C        8.58616813       0.68309724       6.65554654
C        2.43892653       4.23261511       6.59777244
C       11.04531484       2.10334953       6.64989004
C        6.12749699       0.68349589       6.65388824
C        8.58652616       2.10287067       6.65965653
C        1.20936550       4.94267221       6.58706249
C       -0.01937395       4.23236032       6.61164693
C        9.81608765       2.81293033       6.65453715
C        7.35688210       2.81266541       6.65750984
C        9.81591823       4.23234556       6.64738591
C       -1.24878008       4.94167023       6.62817429
C        1.20971141       6.36174544       6.57493003
C        8.58656744       4.94250730       6.65263054
C       -1.24909542       6.36211065       6.62319854
C       -0.01892204       7.07204195       6.59957559
C       -2.47886518       7.07207303       6.64212105
C       -0.01976199       8.49149491       6.61968728
C       -1.24936591       9.20106845       6.64116386
Ag       2.11799968       4.82294224       9.97436703
Ag       4.45630782       6.41004432       9.88013387
Ag      -0.26521076       5.99445115       9.88606808
Ag       2.00224311       7.54410137       9.81891875
O        4.21025627       4.12144875      10.10340173
H        4.44414840       3.75642935       9.22720052
156
Lattice="12.29434013 0.0 0.0 -6.14717148 10.64721006 0.0 0.0 0.0 22.0" Properties=species:S:1:pos:R:3 energy_eV=-1416.0746 mag=0.9966 pbc="T T T"
C        6.14716986       2.12944214       0.00000000
C        7.37660326       4.25888418       0.00000000
C        4.91773541       2.83925659       0.00000000
C        4.91773557       4.25888415       0.00000000
C        6.14716917       4.96869803       0.00000000
C       -3.68830294       6.38832627       0.00000000
C        3.68830118       4.96869851       0.00000000
C        6.14716897       6.38832620       0.00000000
C       -2.45886928       8.51776833       0.00000000
C        7.37660279       7.09814063       0.00000000
C        3.68830141       6.38832594       0.00000000
C        4.91773498       7.09813987       0.00000000
C       -4.91773716       8.51776817       0.00000000
C       -3.68830360       9.22758209       0.00000000
C        4.91773585       0.00000033       0.00000000
C        2.45886688       7.09814053       0.00000000
C        4.91773468       8.51776822       0.00000000
C        2.45886802       0.00000007       0.00000000
C        6.14716856       9.22758254       0.00000000
C        3.68830171       0.70981427       0.00000000
C       -6.14717129      10.64720988       0.00000000
C        3.68830047       9.22758227       0.00000000
C        1.22943366       0.70981390       0.00000000
C        2.45886662       8.51776881       0.00000000
C        3.68830157       2.12944234       0.00000000
C        1.22943240       9.22758284       0.00000000
C       11.06490574       0.70981449       0.00000000
C        9.83547161       0.00000058       0.00000000
C        1.22943355       2.12944239       0.00000000
C        2.45886736       2.83925639       0.00000000
C        1.22943315      10.64720936       0.00000000
C       -0.00000075       2.83925612       0.00000000
C        8.60603739       0.70981464       0.00000000
C        2.45886728       4.25888435       0.00000000
C       -1.22943470       2.12944286       0.00000000
C        6.14716994       0.70981418       0.00000000
C        8.60603756       2.12944217       0.00000000
C        1.22943306       4.96869841       0.00000000
C       -0.00000087       4.25888462       0.00000000
C        9.83547120       2.83925691       0.00000000
C        7.37660359       2.83925581       0.00000000
C       -2.45886876       4.25888446       0.00000000
C       -1.22943529       4.96869854       0.00000000
C        1.22943273       6.38832678       0.00000000
C        8.60603739       4.96869809       0.00000000
C       -1.22943516       6.38832662       0.00000000
C       -0.00000172       7.09814125       0.00000000
C       -2.45886909       7.09813974       0.00000000
C       -0.00000132       8.51776838       0.00000000
C       -1.22943600       9.22758325       0.00000000
C        6.14716986       2.12944214       3.35461664
C        4.91773573       1.41962823       3.35461664
C        6.14716926       3.54907007       3.35461664
C        7.37660326       4.25888418       3.35461664
C        4.91773557       4.25888415       3.35461664
C       -3.68830294       6.38832627       3.35461664
C        7.37660265       5.67851212       3.35461664
C        3.68830108       3.54907086       3.35461664
C        4.91773491       5.67851218       3.35461664
C        6.14716897       6.38832620       3.35461664
C       -3.68830328       7.80795422       3.35461664
C       -2.45886928       8.51776833       3.35461664
C        3.68830141       6.38832594       3.35461664
C        2.45886695       5.67851259       3.35461664
C        6.14716843       7.80795401       3.35461664
C       -4.91773716       8.51776817       3.35461664
C       -2.45886963       9.93739629       3.35461664
C        4.91773585       0.00000033       3.35461664
C        3.68830073       7.80795400       3.35461664
C        4.91773468       8.51776822       3.35461664
C        2.45886802       0.00000007       3.35461664
C       -4.91773764       9.93739633       3.35461664
C       -6.14717129      10.64720988       3.35461664
C        4.91773430       9.93739573       3.35461664
C        1.22943260       7.80795468       3.35461664
C        2.45886662       8.51776881       3.35461664
C        2.45886755       1.41962823       3.35461664
C        3.68830157       2.12944234       3.35461664
C       -0.00000034       1.41962807       3.35461664
C        2.45886613       9.93739652       3.35461664
C        9.83547161       0.00000058       3.35461664
C        1.22943355       2.12944239       3.35461664
C        1.22943315      10.64720936       3.35461664
C        9.83547159       1.41962748       3.35461664
C       -0.00000168       9.93739669       3.35461664
C        1.22943339       3.54907003       3.35461664
C        2.45886728       4.25888435       3.35461664
C       -1.22943470       2.12944286       3.35461664
C        7.37660390       1.41962745       3.35461664
C        8.60603756       2.12944217       3.35461664
C       -0.00000087       4.25888462       3.35461664
C       -1.22943500       3.54907070       3.35461664
C        8.60603731       3.54906948       3.35461664
C       -2.45886876       4.25888446       3.35461664
C       -0.00000116       5.67851245       3.35461664
C        1.22943273       6.38832678       3.35461664
C       -1.22943516       6.38832662       3.35461664
C       -2.45886976       5.67851354       3.35461664
C       -0.00000132       8.51776838       3.35461664
C       -1.22943524       7.80795459       3.35461664
C        6.19106335       2.06273867       6.66368344
C        7.42078485       4.19152646       6.66850681
C        4.96157288       2.77176152       6.65438015
C        4.96207096       4.19033831       6.65537973
C        6.19114074       4.90033725       6.66365167
C       -3.64351559       6.31969964       6.67050589
C        3.73285022       4.90020649       6.64729908
C        6.19139060       6.32020142       6.66551478
C       -2.41387725       8.44988245       6.66986082
C        7.42109830       7.02973517       6.66996365
C        3.73259540       6.32048876       6.64200499
C        4.96217581       7.03034601       6.65894239
C       -4.87334080       8.45045116       6.67084431
C       -3.64329761       9.16026006       6.67105186
C       -1.18546364      10.58004185       6.66595603
C        2.50309223       7.02964362       6.63331987
C        4.96256297       8.45013243       6.66476169
C       -3.64316748      10.58024692       6.66842790
C        6.19182363       9.16038830       6.67274279
C        3.73298739       0.64350511       6.66179020
C       -6.10190640      10.57965847       6.67162835
C        3.73309647       9.15997885       6.66596271
C        1.27475843       0.64210317       6.66951254
C        2.50290837       8.44976159       6.65353952
C        3.73295341       2.06252862       6.65194920
C        1.27329111       9.15990769       6.66039921
C       11.10994307       0.64165046       6.67281119
C        3.73303364      10.57965713       6.67235377
C        1.27574570       2.06186737       6.65926455
C        2.50465829       2.77141429       6.64822186
C        1.27355474      10.57943636       6.66749176
C        0.04466120       2.77165471       6.66152015
C        8.65047767       0.64194839       6.67106962
C        2.50336753       4.19023376       6.63600789
C       -1.18534760       2.06146671       6.66906892
C        6.19146753       0.64242635       6.66821714
C        8.65025624       2.06202334       6.66989571
C        1.27487145       4.90076813       6.63234691
C        0.04462909       4.19230789       6.64851208
C        9.87988598       2.77168786       6.66926354
C        7.42059218       2.77213302       6.66932166
C       -2.41426328       4.19136465       6.66566917
C       -1.18500773       4.90083308       6.65737233
C        1.27452629       6.32004910       6.63161442
C        8.65065526       4.90072252       6.67183548
C       -1.18489656       6.32023831       6.66150574
C        0.04499909       7.02997426       6.65307904
C       -2.41408225       7.02981341       6.67103972
C        0.04442229       8.44990353       6.65982677
C       -1.18458215       9.15989233       6.66952133
Ag       1.01051844       3.45258790       9.89467938
Ag       2.63211733       7.87860100       9.93345812
Ag       3.12986421       5.28318794       9.96528414
Ag       0.52943489       6.12481719      10.01844837
O        3.28073422       3.09042315       9.94921305
H        3.47515409       2.82707445      10.87006176
156
Lattice="12.29434013 0.0 0.0 -6.14717148 10.64721006 0.0 0.0 0.0 22.0" Properties=species:S:1:pos:R:3 energy_eV=-1416.0227 mag=0.9961 pbc="T T T"
C        6.14716986       2.12944214       0.00000000
C        7.37660326       4.25888418       0.00000000
C        4.91773541       2.83925659       0.00000000
C        4.91773557       4.25888415       0.00000000
C        6.14716917       4.96869803       0.00000000
C       -3.68830294       6.38832627       0.00000000
C        3.68830118       4.96869851       0.00000000
C        6.14716897       6.38832620       0.00000000
C       -2.45886928       8.51776833       0.00000000
C        7.37660279       7.09814063       0.00000000
C        3.68830141       6.38832594       0.00000000
C        4.91773498       7.09813987       0.00000000
C       -4.91773716       8.51776817       0.00000000
C       -3.68830360       9.22758209       0.00000000
C        4.91773585       0.00000033       0.00000000
C        2.45886688       7.09814053       0.00000000
C        4.91773468       8.51776822       0.00000000
C        2.45886802       0.00000007       0.00000000
C        6.14716856       9.22758254       0.00000000
C        3.68830171       0.70981427       0.00000000
C       -6.14717129      10.64720988       0.00000000
C        3.68830047       9.22758227       0.00000000
C        1.22943366       0.70981390       0.00000000
C        2.45886662       8.51776881       0.00000000
C        3.68830157       2.12944234       0.00000000
C        1.22943240       9.22758284       0.00000000
C       11.06490574       0.70981449       0.00000000
C        9.83547161       0.00000058       0.00000000
C        1.22943355       2.12944239       0.00000000
C        2.45886736       2.83925639       0.00000000
C        1.22943315      10.64720936       0.00000000
C       -0.00000075       2.83925612       0.00000000
C        8.60603739       0.70981464       0.00000000
C        2.45886728       4.25888435       0.00000000
C       -1.22943470       2.12944286       0.00000000
C        6.14716994       0.70981418       0.00000000
C        8.60603756       2.12944217       0.00000000
C        1.22943306       4.96869841       0.00000000
C       -0.00000087       4.25888462       0.00000000
C        9.83547120       2.83925691       0.00000000
C        7.37660359       2.83925581       0.00000000
C       -2.45886876       4.25888446       0.00000000
C       -1.22943529       4.96869854       0.00000000
C        1.22943273       6.38832678       0.00000000
C        8.60603739       4.96869809       0.00000000
C       -1.22943516       6.38832662       0.00000000
C       -0.00000172       7.09814125       0.00000000
C       -2.45886909       7.09813974       0.00000000
C       -0.00000132       8.51776838       0.00000000
C       -1.22943600       9.22758325       0.00000000
C        6.14716986       2.12944214       3.35461664
C        4.91773573       1.41962823       3.35461664
C        6.14716926       3.54907007       3.35461664
C        7.37660326       4.25888418       3.35461664
C        4.91773557       4.25888415       3.35461664
C       -3.68830294       6.38832627       3.35461664
C        7.37660265       5.67851212       3.35461664
C        3.68830108       3.54907086       3.35461664
C        4.91773491       5.67851218       3.35461664
C        6.14716897       6.38832620       3.35461664
C       -3.68830328       7.80795422       3.35461664
C       -2.45886928       8.51776833       3.35461664
C        3.68830141       6.38832594       3.35461664
C        2.45886695       5.67851259       3.35461664
C        6.14716843       7.80795401       3.35461664
C       -4.91773716       8.51776817       3.35461664
C       -2.45886963       9.93739629       3.35461664
C        4.91773585       0.00000033       3.35461664
C        3.68830073       7.80795400       3.35461664
C        4.91773468       8.51776822       3.35461664
C        2.45886802       0.00000007       3.35461664
C       -4.91773764       9.93739633       3.35461664
C       -6.14717129      10.64720988       3.35461664
C        4.91773430       9.93739573       3.35461664
C        1.22943260       7.80795468       3.35461664
C        2.45886662       8.51776881       3.35461664
C        2.45886755       1.41962823       3.35461664
C        3.68830157       2.12944234       3.35461664
C       -0.00000034       1.41962807       3.35461664
C        2.45886613       9.93739652       3.35461664
C        9.83547161       0.00000058       3.35461664
C        1.22943355       2.12944239       3.35461664
C        1.22943315      10.64720936       3.35461664
C        9.83547159       1.41962748       3.35461664
C       -0.00000168       9.93739669       3.35461664
C        1.22943339       3.54907003       3.35461664
C        2.45886728       4.25888435       3.35461664
C       -1.22943470       2.12944286       3.35461664
C        7.37660390       1.41962745       3.35461664
C        8.60603756       2.12944217       3.35461664
C       -0.00000087       4.25888462       3.35461664
C       -1.22943500       3.54907070       3.35461664
C        8.60603731       3.54906948       3.35461664
C       -2.45886876       4.25888446       3.35461664
C       -0.00000116       5.67851245       3.35461664
C        1.22943273       6.38832678       3.35461664
C       -1.22943516       6.38832662       3.35461664
C       -2.45886976       5.67851354       3.35461664
C       -0.00000132       8.51776838       3.35461664
C       -1.22943524       7.80795459       3.35461664
C        6.19998960       2.15493263       6.63508420
C        7.43091926       4.28505947       6.64613318
C        4.97056764       2.86251333       6.63774632
C        4.96925344       4.28496869       6.65374526
C        6.20215056       4.99700198       6.65113390
C       -3.63567172       6.41507760       6.64694742
C        3.73784468       4.99750642       6.63665530
C        6.20016817       6.41717300       6.64189213
C       -2.40643605       8.54437989       6.64413997
C        7.42987528       7.12523569       6.64417472
C        3.73957916       6.41590857       6.63271828
C        4.96953703       7.12517725       6.63684301
C       -4.86511930       8.54462405       6.64527850
C       -3.63559068       9.25445473       6.64497667
C        4.96996862       0.02644701       6.63803624
C        2.51104677       7.12504915       6.64008105
C        4.96991979       8.54450420       6.64164858
C        2.51140880       0.02668455       6.64474252
C        6.19979613       9.25450143       6.64748610
C        3.74083087       0.73599896       6.63799556
C        0.05257951       0.02689053       6.65090615
C        3.74052126       9.25423468       6.64466985
C        1.28225898       0.73635712       6.65095960
C        2.51121953       8.54433531       6.64341552
C        3.74100786       2.15444467       6.63776490
C        1.28195123       9.25407326       6.64443364
C       11.11754893       0.73642836       6.65166498
C        9.88781430       0.02650687       6.64788672
C        1.28143249       2.15579638       6.65252000
C        2.51163127       2.86609818       6.64933567
C        7.42918872       0.02635727       6.64213415
C        0.05268341       2.86622642       6.65387848
C        8.65864784       0.73626201       6.64485431
C        2.51026661       4.28658912       6.64066137
C       -1.17655958       2.15589390       6.65242903
C        6.19961382       0.73578758       6.63782242
C        8.65868959       2.15558801       6.64538226
C        1.28161750       4.99584751       6.64649649
C        0.05263748       4.28567764       6.65201264
C        9.88829772       2.86577034       6.64998125
C        7.42944095       2.86529496       6.64247114
C       -2.40589546       4.28559547       6.64958486
C       -1.17640425       4.99559019       6.65142349
C        1.28196703       6.41508231       6.64530501
C        8.65940414       4.99583531       6.64793697
C       -1.17683919       6.41502509       6.64875456
C        0.05279741       7.12474981       6.64812712
C       -2.40635412       7.12481335       6.64687442
C        0.05241875       8.54429696       6.64433530
C       -1.17684891       9.25430380       6.64268178
Ag       2.84994578       2.95925730      10.08536704
Ag       5.13533791       7.12548339      10.19524113
Ag       5.01983392       4.47942248       9.46827314
Ag       2.98832795       5.69090021      10.79916991
O        1.36543121       4.27960734      11.24501981
H        0.63297413       4.47869242      10.63039098
156
Lattice="12.29434013 0.0 0.0 -6.14717148 10.64721006 0.0 0.0 0.0 22.0" Properties=species:S:1:pos:R:3 energy_eV=-1415.9733 mag=0.9969 pbc="T T T"
C        6.14716986       2.12944214       0.00000000
C        7.37660326       4.25888418       0.00000000
C        4.91773541       2.83925659       0.00000000
C        4.91773557       4.25888415       0.00000000
C        6.14716917       4.96869803       0.00000000
C       -3.68830294       6.38832627       0.00000000
C        3.68830118       4.96869851       0.00000000
C        6.14716897       6.38832620       0.00000000
C       -2.45886928       8.51776833       0.00000000
C        7.37660279       7.09814063       0.00000000
C        3.68830141       6.38832594       0.00000000
C        4.91773498       7.09813987       0.00000000
C       -4.91773716       8.51776817       0.00000000
C       -3.68830360       9.22758209       0.00000000
C        4.91773585       0.00000033       0.00000000
C        2.45886688       7.09814053       0.00000000
C        4.91773468       8.51776822       0.00000000
C        2.45886802       0.00000007       0.00000000
C        6.14716856       9.22758254       0.00000000
C        3.68830171       0.70981427       0.00000000
C       -6.14717129      10.64720988       0.00000000
C        3.68830047       9.22758227       0.00000000
C        1.22943366       0.70981390       0.00000000
C        2.45886662       8.51776881       0.00000000
C        3.68830157       2.12944234       0.00000000
C        1.22943240       9.22758284       0.00000000
C       11.06490574       0.70981449       0.00000000
C        9.83547161       0.00000058       0.00000000
C        1.22943355       2.12944239       0.00000000
C        2.45886736       2.83925639       0.00000000
C        1.22943315      10.64720936       0.00000000
C       -0.00000075       2.83925612       0.00000000
C        8.60603739       0.70981464       0.00000000
C        2.45886728       4.25888435       0.00000000
C       -1.22943470       2.12944286       0.00000000
C        6.14716994       0.70981418       0.00000000
C        8.60603756       2.12944217       0.00000000
C        1.22943306       4.96869841       0.00000000
C       -0.00000087       4.25888462       0.00000000
C        9.83547120       2.83925691       0.00000000
C        7.37660359       2.83925581       0.00000000
C       -2.45886876       4.25888446       0.00000000
C       -1.22943529       4.96869854       0.00000000
C        1.22943273       6.38832678       0.00000000
C        8.60603739       4.96869809       0.00000000
C       -1.22943516       6.38832662       0.00000000
C       -0.00000172       7.09814125       0.00000000
C       -2.45886909       7.09813974       0.00000000
C       -0.00000132       8.51776838       0.00000000
C       -1.22943600       9.22758325       0.00000000
C        6.14716986       2.12944214       3.35461664
C        4.91773573       1.41962823       3.35461664
C        6.14716926       3.54907007       3.35461664
C        7.37660326       4.25888418       3.35461664
C        4.91773557       4.25888415       3.35461664
C       -3.68830294       6.38832627       3.35461664
C        7.37660265       5.67851212       3.35461664
C        3.68830108       3.54907086       3.35461664
C        4.91773491       5.67851218       3.35461664
C        6.14716897       6.38832620       3.35461664
C       -3.68830328       7.80795422       3.35461664
C       -2.45886928       8.51776833       3.35461664
C        3.68830141       6.38832594       3.35461664
C        2.45886695       5.67851259       3.35461664
C        6.14716843       7.80795401       3.35461664
C       -4.91773716       8.51776817       3.35461664
C       -2.45886963       9.93739629       3.35461664
C        4.91773585       0.00000033       3.35461664
C        3.68830073       7.80795400       3.35461664
C        4.91773468       8.51776822       3.35461664
C        2.45886802       0.00000007       3.35461664
C       -4.91773764       9.93739633       3.35461664
C       -6.14717129      10.64720988       3.35461664
C        4.91773430       9.93739573       3.35461664
C        1.22943260       7.80795468       3.35461664
C        2.45886662       8.51776881       3.35461664