157
Lattice="12.29434013 0.0 0.0 -6.14717148 10.64721006 0.0 0.0 0.0 22.0" Properties=species:S:1:pos:R:3 energy_eV=-1422.4708 mag=0.9256 pbc="T T T"
C       -0.00000041       4.25888403       0.00000000
C        2.45886747       4.25888373       0.00000000
C        0.00000002       2.83925549       0.00000000
C        1.22943389       2.12944201       0.00000000
C        2.45886755       2.83925581       0.00000000
C        4.91773566       4.25888387       0.00000000
C        1.22943425       0.70981358       0.00000000
C        3.68830178       2.12944172       0.00000000
C        7.37660369       4.25888378       0.00000000
C        4.91773602       2.83925543       0.00000000
C        2.45886805       0.00000024       0.00000000
C        3.68830174       0.70981398       0.00000000
C        6.14716990       2.12944197       0.00000000
C        7.37660357       2.83925569       0.00000000
C        9.83547172       4.25888369       0.00000000
C       -3.68830294       9.22758163       0.00000000
C       -1.22943541      10.64720976       0.00000000
C        8.60603787       2.12944196       0.00000000
C        6.14717026       0.70981352       0.00000000
C        9.83547184       2.83925568       0.00000000
C        7.37660401       0.00000026       0.00000000
C       -1.22943522       9.22758164       0.00000000
C        8.60603777       0.70981383       0.00000000
C       -2.45886863       8.51776743       0.00000000
C       11.06490602       2.12944167       0.00000000
C       -2.45886846       7.09813930       0.00000000
C        1.22943306       9.22758157       0.00000000
C       -0.00000087       8.51776733       0.00000000
C        3.68830085      10.64720971       0.00000000
C       11.06490621       0.70981356       0.00000000
C       -1.22943518       6.38832686       0.00000000
C        3.68830072       9.22758167       0.00000000
C       -0.00000069       7.09813921       0.00000000
C        6.14716883      10.64720973       0.00000000
C        2.45886743       8.51776727       0.00000000
C       -1.22943453       4.96869791       0.00000000
C        1.22943318       6.38832574       0.00000000
C        6.14716902       9.22758161       0.00000000
C        4.91773528       8.51776748       0.00000000
C        2.45886762       7.09813913       0.00000000
C        1.22943314       4.96869802       0.00000000
C        3.68830149       6.38832568       0.00000000
C        4.91773526       7.09813924       0.00000000
C       -4.91773675       8.51776730       0.00000000
C        3.68830143       4.96869796       0.00000000
C        6.14716958       6.38832549       0.00000000
C        7.37660380       7.09813876       0.00000000
C        6.14716906       4.96869806       0.00000000
C       -3.68830269       6.38832570       0.00000000
C        8.60603809       4.96869676       0.00000000
C       -0.00000041       4.25888403       3.35461664
C       -1.22943436       3.54906979       3.35461664
C        1.22943344       3.54906969       3.35461664
C        2.45886747       4.25888373       3.35461664
C        1.22943389       2.12944201       3.35461664
C        4.91773566       4.25888387       3.35461664
C        3.68830132       3.54906939       3.35461664
C        0.00000032       1.41962715       3.35461664
C        2.45886779       1.41962759       3.35461664
C        3.68830178       2.12944172       3.35461664
C        6.14716963       3.54906975       3.35461664
C        7.37660369       4.25888378       3.35461664
C        2.45886805       0.00000024       3.35461664
C       -4.91773704       9.93739549       3.35461664
C        4.91773554       1.41962751       3.35461664
C        6.14716990       2.12944197       3.35461664
C        8.60603768       3.54906965       3.35461664
C        9.83547172       4.25888369       3.35461664
C       -2.45886952       9.93739584       3.35461664
C       -1.22943541      10.64720976       3.35461664
C        8.60603787       2.12944196       3.35461664
C        7.37660399       1.41962762       3.35461664
C        7.37660401       0.00000026       3.35461664
C       -0.00000181       9.93739584       3.35461664
C       -3.68830270       7.80795340       3.35461664
C       -2.45886863       8.51776743       3.35461664
C        9.83547196       1.41962765       3.35461664
C       11.06490602       2.12944167       3.35461664
C        2.45886667       9.93739589       3.35461664
C       -1.22943492       7.80795330       3.35461664
C       -0.00000087       8.51776733       3.35461664
C        3.68830085      10.64720971       3.35461664
C       -1.22943518       6.38832686       3.35461664
C        1.22943236       7.80795403       3.35461664
C       -2.45886840       5.67851138       3.35461664
C        4.91773467       9.93739590       3.35461664
C        6.14716883      10.64720973       3.35461664
C        2.45886743       8.51776727       3.35461664
C       -0.00000123       5.67851232       3.35461664
C        1.22943318       6.38832574       3.35461664
C        4.91773528       8.51776748       3.35461664
C        3.68830136       7.80795324       3.35461664
C        2.45886667       5.67851202       3.35461664
C        3.68830149       6.38832568       3.35461664
C        6.14716921       7.80795348       3.35461664
C       -4.91773675       8.51776730       3.35461664
C        6.14716958       6.38832549       3.35461664
C        4.91773612       5.67851041       3.35461664
C       -3.68830269       6.38832570       3.35461664
C        7.37660370       5.67851158       3.35461664
C       -0.02063826       4.21620618       6.64134521
C        2.43721637       4.21724845       6.61949685
C       -0.02053263       2.79628774       6.64355030
C        1.20873986       2.08645134       6.64497401
C        2.43624372       2.79693832       6.64320025
C        4.89809804       4.21592154       6.60962809
C        1.20867269       0.66646175       6.64130379
C        3.66928760       2.08531385       6.64400852
C        7.35670341       4.21593740       6.60878403
C        4.89953557       2.79630356       6.62788020
C       -3.70935917      10.60265121       6.63898642
C        3.66864672       0.66472974       6.64343240
C        6.12819629       2.08547780       6.62599434
C        7.35758102       2.79629535       6.61748771
C        9.81485427       4.21549351       6.62790764
C       -3.71024554       9.18319643       6.62794400
C       -1.24898028      10.60388763       6.63823397
C        8.58605180       2.08626010       6.62412566
C        6.12685118       0.66572052       6.63331377
C        9.81506447       2.79586896       6.62983539
C        1.20849547      10.60353246       6.62974299
C       -1.25006029       9.18423090       6.63622536
C        8.58594518       0.66625152       6.62887185
C       -2.48032809       8.47407597       6.62994879
C       11.04426398       2.08612700       6.63688644
C       -2.47999704       7.05411229       6.62783674
C        1.20941030       9.18364486       6.63049723
C       -0.01994093       8.47343521       6.63489144
C        3.66868925      10.60305671       6.62693646
C       11.04434447       0.66611349       6.63169544
C       -1.25009143       6.34518988       6.63631118
C        3.66814796       9.18374377       6.61827040
C       -0.02028315       7.05403039       6.63710588
C        6.12605211      10.60292969       6.63134466
C        2.43856026       8.47497038       6.62074336
C       -1.25028893       4.92555700       6.63645729
C        1.20833730       6.34551889       6.62802689
C        6.12622409       9.18284614       6.61562928
C        4.89686533       8.47316281       6.60313080
C        2.43825945       7.05462227       6.61202962
C        1.20796786       4.92701586       6.63144217
C        3.66758501       6.34696812       6.58846048
C        4.89710044       7.05588534       6.58701460
C        7.35597807       8.47416247       6.61426982
C        3.66580373       4.92735679       6.60057827
C        6.12689759       6.34601194       6.58762842
C        7.35546850       7.05506748       6.60188639
C        6.12799451       4.92659410       6.59776848
C        8.58465945       6.34462224       6.61258476
C        8.58605702       4.92597515       6.61556210
Au       4.43288048       4.93356258       9.61612083
Au       2.94427748       2.84763539       9.76433224
Au       3.61081212       7.49268094      10.56513324
Au       2.16528346       5.07761251      10.97902631
O        5.22047948       6.79471918       9.62498162
O        0.83224718       6.19074696      11.98502421
H        1.02992872       6.10686220      12.93883114
157
Lattice="12.29434013 0.0 0.0 -6.14717148 10.64721006 0.0 0.0 0.0 22.0" Properties=species:S:1:pos:R:3 energy_eV=-1421.9617 mag=0.9858 pbc="T T T"
C        7.37660360       4.25888416       0.00000000
C        8.60603700       6.38832620       0.00000000
C        6.14716915       4.96869863       0.00000000
C        6.14716930       6.38832616       0.00000000
C        7.37660291       7.09814005       0.00000000
C       -2.45886920       8.51776829       0.00000000
C        4.91773491       7.09814054       0.00000000
C        7.37660270       8.51776822       0.00000000
C        4.91773594       0.00000028       0.00000000
C       -3.68830360       9.22758265       0.00000000
C        4.91773514       8.51776796       0.00000000
C        6.14716871       9.22758188       0.00000000
C        2.45886805       0.00000011       0.00000000
C        3.68830162       0.70981404       0.00000000
C        6.14716960       2.12944234       0.00000000
C        3.68830062       9.22758255       0.00000000
C       12.29433988       0.00000017       0.00000000
C        3.68830176       2.12944208       0.00000000
C        1.22943364       0.70981450       0.00000000
C        4.91773546       2.83925628       0.00000000
C        1.22943393       2.12944183       0.00000000
C       11.06490567       0.70981422       0.00000000
C        2.45886740       2.83925591       0.00000000
C        9.83547183       0.00000075       0.00000000
C        4.91773530       4.25888435       0.00000000
C        8.60603762       0.70981481       0.00000000
C       -0.00000065       2.83925650       0.00000000
C       11.06490535       2.12944260       0.00000000
C        2.45886729       4.25888441       0.00000000
C        3.68830109       4.96869840       0.00000000
C        8.60603837       2.12944133       0.00000000
C        1.22943298       4.96869813       0.00000000
C        9.83547114       2.83925665       0.00000000
C        3.68830101       6.38832636       0.00000000
C       -0.00000096       4.25888488       0.00000000
C        7.37660368       2.83925620       0.00000000
C        9.83547129       4.25888420       0.00000000
C        2.45886680       7.09814042       0.00000000
C        1.22943287       6.38832662       0.00000000
C       -1.22943519       4.96869893       0.00000000
C        8.60603731       4.96869783       0.00000000
C       -1.22943502       6.38832648       0.00000000
C       -0.00000155       7.09814056       0.00000000
C        2.45886647       8.51776880       0.00000000
C       -2.45886902       7.09814012       0.00000000
C       -0.00000142       8.51776864       0.00000000
C        1.22943203       9.22758326       0.00000000
C       -1.22943537       9.22758174       0.00000000
C        7.37660389       0.00000034       0.00000000
C        6.14716921       0.70981520       0.00000000
C        7.37660360       4.25888416       3.35461664
C        6.14716948       3.54907025       3.35461664
C        7.37660299       5.67851209       3.35461664
C        8.60603700       6.38832620       3.35461664
C        6.14716930       6.38832616       3.35461664
C       -2.45886920       8.51776829       3.35461664
C       -3.68830375       7.80795414       3.35461664
C        4.91773481       5.67851289       3.35461664
C        6.14716863       7.80795420       3.35461664
C        7.37660270       8.51776822       3.35461664
C       -2.45886955       9.93739622       3.35461664
C        4.91773594       0.00000028       3.35461664
C        4.91773514       8.51776796       3.35461664
C        3.68830068       7.80795462       3.35461664
C       -4.91773797       9.93739603       3.35461664
C        2.45886805       0.00000011       3.35461664
C        4.91773559       1.41962824       3.35461664
C        6.14716960       2.12944234       3.35461664
C        4.91773446       9.93739601       3.35461664
C       12.29433988       0.00000017       3.35461664
C        3.68830176       2.12944208       3.35461664
C        2.45886757       1.41962828       3.35461664
C        1.22943393       2.12944183       3.35461664
C       -0.00000062       1.41962769       3.35461664
C        2.45886635       9.93739671       3.35461664
C        9.83547183       0.00000075       3.35461664
C        3.68830129       3.54907024       3.35461664
C        4.91773530       4.25888435       3.35461664
C        1.22943340       3.54907008       3.35461664
C        9.83547134       1.41962848       3.35461664
C       11.06490535       2.12944260       3.35461664
C        2.45886729       4.25888441       3.35461664
C        8.60603837       2.12944133       3.35461664
C       -1.22943479       3.54906949       3.35461664
C        7.37660352       1.41962866       3.35461664
C        2.45886712       5.67851205       3.35461664
C        3.68830101       6.38832636       3.35461664
C       -0.00000096       4.25888488       3.35461664
C        8.60603763       3.54906946       3.35461664
C        9.83547129       4.25888420       3.35461664
C        1.22943287       6.38832662       3.35461664
C       -0.00000126       5.67851272       3.35461664
C       -2.45886910       5.67851151       3.35461664
C       -1.22943502       6.38832648       3.35461664
C        1.22943259       7.80795447       3.35461664
C        2.45886647       8.51776880       3.35461664
C       -0.00000142       8.51776864       3.35461664
C       -1.22943604       7.80795556       3.35461664
C        7.37660389       0.00000034       3.35461664
C       -0.00000152       9.93739660       3.35461664
C        7.38389646       4.35661375       6.64935248
C       -3.68092167       6.48591171       6.63765652
C        6.15549362       5.06660410       6.65368666
C        6.15535752       6.48529263       6.64449330
C        7.38431127       7.19444058       6.64066842
C       -2.44946528       8.61512530       6.63307675
C        4.92793353       7.19639709       6.64373184
C       -4.90926513       8.61346876       6.64126118
C        4.92844294       0.09711754       6.64348158
C       -3.67926202       9.32330349       6.64144825
C        4.92652201       8.61452540       6.64585075
C        6.15551468       9.32234127       6.64686286
C        2.46813659       0.09445562       6.66188469
C        3.70057510       0.80651950       6.66389928
C        6.15860774       2.22703146       6.65560592
C        3.69820337       9.32581897       6.65051152
C        0.00704692       0.09361599       6.66392648
C        3.71064309       2.22263580       6.70304583
C        1.23689557       0.79403720       6.69695241
C        4.93129060       2.93772247       6.67279221
C        1.22848691       2.22321601       6.77834200
C       11.07282880       0.80798929       6.66475946
C        2.47700970       2.94358392       6.78429496
C        9.84514344       0.09846292       6.65632098
C        4.92837959       4.35812893       6.66781406
C        8.61570150       0.80916574       6.65435604
C       -0.00462009       2.94376406       6.68257616
C       -1.22563912       2.22848362       6.65667359
C        2.46990037       4.37146560       6.69154244
C        3.69969841       5.07123839       6.66364113
C        8.61371136       2.22811840       6.64874577
C        1.23830338       5.07103031       6.65033175
C        9.84123279       2.93853173       6.64530816
C        3.69867262       6.48955112       6.64478953
C        0.00568136       4.35946823       6.64499609
C        7.38574372       2.93810067       6.65120430
C       -2.45191312       4.35757179       6.64002226
C        2.46895066       7.19791742       6.64200303
C        1.23870406       6.48890757       6.63339991
C       -1.22247907       5.06848665       6.63004419
C        8.61292702       5.06671167       6.64280095
C       -1.22110481       6.48751626       6.62550472
C        0.00872470       7.19725394       6.62725997
C        2.46887093       8.61699007       6.64546079
C       -2.45024411       7.19636068       6.63112821
C        0.00878798       8.61548333       6.63247677
C        1.23937892       9.32580400       6.64487088
C       -1.21989224       9.32504690       6.63434867
C        7.38676540       0.09808725       6.65035661
C        6.15746145       0.80810328       6.65094620
Au      -0.29817813       1.63436776      10.45016026
Au       1.79056360       2.61163495       9.03380687
Au       3.87563935       3.66468774      10.42989148
Au       1.82104332       2.68188387      11.68485869
O        5.69791853       4.41326410       9.96121243
O        5.69893629       5.85957491       9.89025328
H        6.10419721       6.09057063      10.75501854
157
Lattice="12.29434013 0.0 0.0 -6.14717148 10.64721006 0.0 0.0 0.0 22.0" Properties=species:S:1:pos:R:3 energy_eV=-1421.918 mag=0.9962 pbc="T T T"
C        7.37660360       4.25888416       0.00000000
C        8.60603700       6.38832620       0.00000000
C        6.14716915       4.96869863       0.00000000
C        6.14716930       6.38832616       0.00000000
C        7.37660291       7.09814005       0.00000000
C       -2.45886920       8.51776829       0.00000000
C        4.91773491       7.09814054       0.00000000
C        7.37660270       8.51776822       0.00000000
C        4.91773594       0.00000028       0.00000000
C       -3.68830360       9.22758265       0.00000000
C        4.91773514       8.51776796       0.00000000
C        6.14716871       9.22758188       0.00000000
C        2.45886805       0.00000011       0.00000000
C        3.68830162       0.70981404       0.00000000
C        6.14716960       2.12944234       0.00000000
C        3.68830062       9.22758255       0.00000000
C       12.29433988       0.00000017       0.00000000
C        3.68830176       2.12944208       0.00000000
C        1.22943364       0.70981450       0.00000000
C        4.91773546       2.83925628       0.00000000
C        1.22943393       2.12944183       0.00000000
C       11.06490567       0.70981422       0.00000000
C        2.45886740       2.83925591       0.00000000
C        9.83547183       0.00000075       0.00000000
C        4.91773530       4.25888435       0.00000000
C        8.60603762       0.70981481       0.00000000
C       -0.00000065       2.83925650       0.00000000
C       11.06490535       2.12944260       0.00000000
C        2.45886729       4.25888441       0.00000000
C        3.68830109       4.96869840       0.00000000
C        8.60603837       2.12944133       0.00000000
C        1.22943298       4.96869813       0.00000000
C        9.83547114       2.83925665       0.00000000
C        3.68830101       6.38832636       0.00000000
C       -0.00000096       4.25888488       0.00000000
C        7.37660368       2.83925620       0.00000000
C        9.83547129       4.25888420       0.00000000
C        2.45886680       7.09814042       0.00000000
C        1.22943287       6.38832662       0.00000000
C       -1.22943519       4.96869893       0.00000000
C        8.60603731       4.96869783       0.00000000
C       -1.22943502       6.38832648       0.00000000
C       -0.00000155       7.09814056       0.00000000
C        2.45886647       8.51776880       0.00000000
C       -2.45886902       7.09814012       0.00000000
C       -0.00000142       8.51776864       0.00000000
C        1.22943203       9.22758326       0.00000000
C       -1.22943537       9.22758174       0.00000000
C        7.37660389       0.00000034       0.00000000
C        6.14716921       0.70981520       0.00000000
C        7.37660360       4.25888416       3.35461664
C        6.14716948       3.54907025       3.35461664
C        7.37660299       5.67851209       3.35461664
C        8.60603700       6.38832620       3.35461664
C        6.14716930       6.38832616       3.35461664
C       -2.45886920       8.51776829       3.35461664
C       -3.68830375       7.80795414       3.35461664
C        4.91773481       5.67851289       3.35461664
C        6.14716863       7.80795420       3.35461664
C        7.37660270       8.51776822       3.35461664
C       -2.45886955       9.93739622       3.35461664
C        4.91773594       0.00000028       3.35461664
C        4.91773514       8.51776796       3.35461664
C        3.68830068       7.80795462       3.35461664
C       -4.91773797       9.93739603       3.35461664
C        2.45886805       0.00000011       3.35461664
C        4.91773559       1.41962824       3.35461664
C        6.14716960       2.12944234       3.35461664
C        4.91773446       9.93739601       3.35461664
C       12.29433988       0.00000017       3.35461664
C        3.68830176       2.12944208       3.35461664
C        2.45886757       1.41962828       3.35461664
C        1.22943393       2.12944183       3.35461664
C       -0.00000062       1.41962769       3.35461664
C        2.45886635       9.93739671       3.35461664
C        9.83547183       0.00000075       3.35461664
C        3.68830129       3.54907024       3.35461664
C        4.91773530       4.25888435       3.35461664
C        1.22943340       3.54907008       3.35461664
C        9.83547134       1.41962848       3.35461664
C       11.06490535       2.12944260       3.35461664
C        2.45886729       4.25888441       3.35461664
C        8.60603837       2.12944133       3.35461664
C       -1.22943479       3.54906949       3.35461664
C        7.37660352       1.41962866       3.35461664
C        2.45886712       5.67851205       3.35461664
C        3.68830101       6.38832636       3.35461664
C       -0.00000096       4.25888488       3.35461664
C        8.60603763       3.54906946       3.35461664
C        9.83547129       4.25888420       3.35461664
C        1.22943287       6.38832662       3.35461664
C       -0.00000126       5.67851272       3.35461664
C       -2.45886910       5.67851151       3.35461664
C       -1.22943502       6.38832648       3.35461664
C        1.22943259       7.80795447       3.35461664
C        2.45886647       8.51776880       3.35461664
C       -0.00000142       8.51776864       3.35461664
C       -1.22943604       7.80795556       3.35461664
C        7.37660389       0.00000034       3.35461664
C       -0.00000152       9.93739660       3.35461664
C        7.32517194       4.17104230       6.67340733
C        8.55301584       6.30117139       6.65851283
C        6.09840446       4.88188925       6.69165538
C        6.09510554       6.30196766       6.67599055
C        7.32349661       7.01137097       6.65974988
C       -2.51200354       8.43108426       6.65730410
C        4.86717291       7.01573210       6.67997129
C        7.32343484       8.43128141       6.65408206
C       -1.28229283      10.56048388       6.66892225
C       -3.74144308       9.14068682       6.65580491
C        4.86536141       8.43368651       6.66013917
C        6.09447869       9.14191175       6.65475566
C       -3.74166174      10.56034986       6.66155399
C        3.63488510       0.62275695       6.67381825
C        6.09517244       2.04154271       6.68031379
C        3.63479943       9.14188357       6.65744634
C        6.09357502      10.56073594       6.65459031
C        3.63519268       2.04129173       6.69130433
C        1.17567108       0.62193847       6.66054304
C        4.86618616       2.74845620       6.70235790
C        1.17433029       2.04109087       6.66964526
C       11.01157888       0.62303031       6.65858497
C        2.40339711       2.74873532       6.69389868
C        3.63491659      10.56097596       6.65800998
C        4.87367456       4.16687897       6.73403723
C        8.55278142       0.62316054       6.66056555
C       -0.05432795       2.75184773       6.66551809
C       11.01133794       2.04247705       6.66152483
C        2.39493063       4.16700044       6.71888226
C        3.63380134       4.88240522       6.77983174
C        8.55314308       2.04260158       6.66499603
C        1.17081587       4.88166036       6.66753368
C        9.78226526       2.75194394       6.66294460
C        3.63446021       6.31344426       6.70982753
C       -0.05577169       4.17154390       6.65881837
C        7.32418032       2.75166069       6.67444387
C        9.78187722       4.17185194       6.66002462
C        2.40236563       7.01691476       6.65720069
C        1.17481284       6.30245936       6.65036561
C       -1.28397386       4.88204208       6.65529773
C        8.55353272       4.88153533       6.66231371
C       -1.28352261       6.30139320       6.65287648
C       -0.05411060       7.01145071       6.64835788
C        2.40482711       8.43386681       6.64754806
C       -2.51235131       7.01095173       6.65605662
C       -0.05349611       8.43188363       6.65205093
C        1.17525780       9.14153222       6.65015705
C       -1.28289189       9.14092926       6.66006818
C        1.17667434      10.56079623       6.65872702
C        6.09444443       0.62215731       6.66929133
Au       5.12794390       3.84817409      10.91511548
Au       3.57957835       5.05142520       9.15205679
Au       3.29270207       5.58954700      11.75135225
Au       1.60851640       6.68116067       9.95939362
O        2.78258491       6.49015000      13.50932425
O        1.72572992       5.82689215      14.20425069
H        1.32551522       6.58424867      14.68724379
157
Lattice="12.29434013 0.0 0.0 -6.14717148 10.64721006 0.0 0.0 0.0 22.0" Properties=species:S:1:pos:R:3 energy_eV=-1421.8912 mag=0.9947 pbc="T T T"
C        7.37660360       4.25888416       0.00000000
C        8.60603700       6.38832620       0.00000000
C        6.14716915       4.96869863       0.00000000
C        6.14716930       6.38832616       0.00000000
C        7.37660291       7.09814005       0.00000000
C       -2.45886920       8.51776829       0.00000000
C        4.91773491       7.09814054       0.00000000
C        7.37660270       8.51776822       0.00000000
C        4.91773594       0.00000028       0.00000000
C       -3.68830360       9.22758265       0.00000000
C        4.91773514       8.51776796       0.00000000
C        6.14716871       9.22758188       0.00000000
C        2.45886805       0.00000011       0.00000000
C        3.68830162       0.70981404       0.00000000
C        6.14716960       2.12944234       0.00000000
C        3.68830062       9.22758255       0.00000000
C       12.29433988       0.00000017       0.00000000
C        3.68830176       2.12944208       0.00000000
C        1.22943364       0.70981450       0.00000000
C        4.91773546       2.83925628       0.00000000
C        1.22943393       2.12944183       0.00000000
C       11.06490567       0.70981422       0.00000000
C        2.45886740       2.83925591       0.00000000
C        9.83547183       0.00000075       0.00000000
C        4.91773530       4.25888435       0.00000000
C        8.60603762       0.70981481       0.00000000
C       -0.00000065       2.83925650       0.00000000
C       11.06490535       2.12944260       0.00000000
C        2.45886729       4.25888441       0.00000000
C        3.68830109       4.96869840       0.00000000
C        8.60603837       2.12944133       0.00000000
C        1.22943298       4.96869813       0.00000000
C        9.83547114       2.83925665       0.00000000
C        3.68830101       6.38832636       0.00000000
C       -0.00000096       4.25888488       0.00000000
C        7.37660368       2.83925620       0.00000000
C        9.83547129       4.25888420       0.00000000
C        2.45886680       7.09814042       0.00000000
C        1.22943287       6.38832662       0.00000000
C       -1.22943519       4.96869893       0.00000000
C        8.60603731       4.96869783       0.00000000
C       -1.22943502       6.38832648       0.00000000
C       -0.00000155       7.09814056       0.00000000
C        2.45886647       8.51776880       0.00000000
C       -2.45886902       7.09814012       0.00000000
C       -0.00000142       8.51776864       0.00000000
C        1.22943203       9.22758326       0.00000000
C       -1.22943537       9.22758174       0.00000000
C        7.37660389       0.00000034       0.00000000
C        6.14716921       0.70981520       0.00000000
C        7.37660360       4.25888416       3.35461664
C        6.14716948       3.54907025       3.35461664
C        7.37660299       5.67851209       3.35461664
C        8.60603700       6.38832620       3.35461664
C        6.14716930       6.38832616       3.35461664
C       -2.45886920       8.51776829       3.35461664
C       -3.68830375       7.80795414       3.35461664
C        4.91773481       5.67851289       3.35461664
C        6.14716863       7.80795420       3.35461664
C        7.37660270       8.51776822       3.35461664
C       -2.45886955       9.93739622       3.35461664
C        4.91773594       0.00000028       3.35461664
C        4.91773514       8.51776796       3.35461664
C        3.68830068       7.80795462       3.35461664
C       -4.91773797       9.93739603       3.35461664
C        2.45886805       0.00000011       3.35461664
C        4.91773559       1.41962824       3.35461664
C        6.14716960       2.12944234       3.35461664
C        4.91773446       9.93739601       3.35461664
C       12.29433988       0.00000017       3.35461664
C        3.68830176       2.12944208       3.35461664
C        2.45886757       1.41962828       3.35461664
C        1.22943393       2.12944183       3.35461664