156
Lattice="12.29434013 0.0 0.0 -6.14717148 10.64721006 0.0 0.0 0.0 22.0" Properties=species:S:1:pos:R:3 energy_eV=-1417.5337 mag=0.9848 pbc="T T T"
C       -0.00000072       4.25888403       0.00000000
C        9.83547152       4.25888372       0.00000000
C       -0.00000076       2.83925549       0.00000000
C       11.06490567       2.12944202       0.00000000
C        9.83547183       2.83925580       0.00000000
C        7.37660333       4.25888386       0.00000000
C       11.06490569       0.70981359       0.00000000
C        8.60603778       2.12944171       0.00000000
C        4.91773530       4.25888377       0.00000000
C        7.37660336       2.83925542       0.00000000
C        9.83547208       0.00000024       0.00000000
C        8.60603819       0.70981397       0.00000000
C        6.14716967       2.12944197       0.00000000
C        4.91773581       2.83925570       0.00000000
C        2.45886728       4.25888369       0.00000000
C        3.68830047       9.22758163       0.00000000
C        1.22943257      10.64720975       0.00000000
C        3.68830170       2.12944197       0.00000000
C        6.14716970       0.70981351       0.00000000
C        2.45886754       2.83925567       0.00000000
C        4.91773612       0.00000025       0.00000000
C        1.22943277       9.22758164       0.00000000
C        3.68830216       0.70981383       0.00000000
C        2.45886637       8.51776744       0.00000000
C        1.22943354       2.12944168       0.00000000
C        2.45886658       7.09813932       0.00000000
C       -1.22943551       9.22758156       0.00000000
C       -0.00000139       8.51776734       0.00000000
C       -3.68830369      10.64720970       0.00000000
C        1.22943374       0.70981356       0.00000000
C        1.22943348       6.38832687       0.00000000
C       -3.68830317       9.22758167       0.00000000
C       -0.00000120       7.09813921       0.00000000
C        6.14716846      10.64720972       0.00000000
C       -2.45886969       8.51776727       0.00000000
C        1.22943321       4.96869792       0.00000000
C       -1.22943488       6.38832573       0.00000000
C        6.14716866       9.22758161       0.00000000
C        7.37660258       8.51776748       0.00000000
C       -2.45886948       7.09813914       0.00000000
C       -1.22943445       4.96869802       0.00000000
C        8.60603695       6.38832567       0.00000000
C        7.37660299       7.09813925       0.00000000
C        4.91773449       8.51776730       0.00000000
C        8.60603739       4.96869795       0.00000000
C        6.14716885       6.38832548       0.00000000
C        4.91773444       7.09813877       0.00000000
C        6.14716973       4.96869806       0.00000000
C        3.68830099       6.38832570       0.00000000
C        3.68830073       4.96869676       0.00000000
C       -0.00000072       4.25888403       3.35461664
C        1.22943341       3.54906979       3.35461664
C       -1.22943437       3.54906969       3.35461664
C        9.83547152       4.25888372       3.35461664
C       11.06490567       2.12944202       3.35461664
C        7.37660333       4.25888386       3.35461664
C        8.60603788       3.54906938       3.35461664
C       -0.00000068       1.41962716       3.35461664
C        9.83547197       1.41962759       3.35461664
C        8.60603778       2.12944171       3.35461664
C        6.14716954       3.54906975       3.35461664
C        4.91773530       4.25888377       3.35461664
C        9.83547208       0.00000024       3.35461664
C        4.91773440       9.93739549       3.35461664
C        7.37660421       1.41962750       3.35461664
C        6.14716967       2.12944197       3.35461664
C        3.68830151       3.54906965       3.35461664
C        2.45886728       4.25888369       3.35461664
C        2.45886687       9.93739584       3.35461664
C        1.22943257      10.64720975       3.35461664
C        3.68830170       2.12944197       3.35461664
C        4.91773576       1.41962763       3.35461664
C        4.91773612       0.00000025       3.35461664
C       -0.00000081       9.93739584       3.35461664
C        3.68830062       7.80795341       3.35461664
C        2.45886637       8.51776744       3.35461664
C        2.45886779       1.41962765       3.35461664
C        1.22943354       2.12944168       3.35461664
C       -2.45886932       9.93739589       3.35461664
C        1.22943286       7.80795331       3.35461664
C       -0.00000139       8.51776734       3.35461664
C       -3.68830369      10.64720970       3.35461664
C        1.22943348       6.38832687       3.35461664
C       -1.22943442       7.80795403       3.35461664
C        2.45886690       5.67851139       3.35461664
C       -4.91773730       9.93739591       3.35461664
C        6.14716846      10.64720972       3.35461664
C       -2.45886969       8.51776727       3.35461664
C       -0.00000028       5.67851232       3.35461664
C       -1.22943488       6.38832573       3.35461664
C        7.37660258       8.51776748       3.35461664
C       -3.68830341       7.80795326       3.35461664
C       -2.45886816       5.67851201       3.35461664
C        8.60603695       6.38832567       3.35461664
C        6.14716886       7.80795349       3.35461664
C        4.91773449       8.51776730       3.35461664
C        6.14716885       6.38832548       3.35461664
C        7.37660251       5.67851042       3.35461664
C        3.68830099       6.38832570       3.35461664
C        4.91773492       5.67851158       3.35461664
C        0.02163232       4.34265506       6.61296084
C       -2.42690856       4.34763194       6.61791757
C        0.03182173       2.92632143       6.59434286
C       -1.19658497       2.21816979       6.60436008
C        9.86899374       2.92900135       6.62267650
C        7.41207526       4.34842714       6.64325210
C       11.09913503       0.79957943       6.61204157
C        8.64025694       2.22028700       6.64262900
C        4.95839759       4.34886871       6.63226169
C        7.41132700       2.93007499       6.65143567
C        9.87059089       0.09007152       6.62177081
C        8.64063225       0.80075714       6.63906478
C        6.18262547       2.21983392       6.65364576
C        4.95508493       2.92835989       6.64375299
C        2.50317129       4.34365801       6.68855256
C        3.72374499       9.31889730       6.61240606
C        7.41100908       0.09146778       6.64086680
C        3.72658497       2.21509633       6.63116924
C        6.18192044       0.80069752       6.65005107
C        2.49682200       2.91542426       6.62868369
C        4.95375786       0.09008571       6.64060809
C        1.26436741       9.31977387       6.62026747
C        3.72487174       0.79725312       6.63286351
C        2.49422299       8.61029160       6.60340307
C        1.26456352       2.21522257       6.59919987
C        2.49556594       7.19254019       6.59225099
C       -1.19414534       9.31893107       6.63261528
C        0.03482527       8.61147654       6.61548923
C        2.49531959       0.08909273       6.62719527
C        1.26505233       0.79725253       6.60850289
C        1.26355620       6.49271935       6.60910966
C       -3.65203708       9.31700114       6.63876674
C        0.03354941       7.19346504       6.60398766
C        0.03479604       0.08906229       6.61141911
C       -2.42247830       8.60808354       6.63632832
C        1.25536675       5.06351687       6.67642535
C       -1.19489707       6.47899424       6.61421732
C        6.18258166       9.31751643       6.62260805
C       -4.88148127       8.60677719       6.63470303
C       -2.42288794       7.18767191       6.63188018
C       -1.19981808       5.05783475       6.60567065
C       -3.65287210       6.47719100       6.63815986
C        7.41264020       7.18741056       6.63978112
C        4.95327667       8.60864613       6.61220130
C        8.64015346       5.05871362       6.63506262
C        6.18392777       6.47782126       6.62987505
C        4.95550185       7.18920376       6.60964459
C        6.18562414       5.05906116       6.63591377
C        3.72802250       6.48089579       6.59970163
C        3.73714535       5.06396539       6.62864816
Au      -0.15056287       5.99338907      10.22707784
Au       1.87688126       4.73205063       8.94314767
Au       3.86738653       3.69783114      10.44874977
Au       1.95339742       5.05613742      11.57827786
O        5.57766000       2.69690284      10.19628449
H        5.41315350       1.78228982      10.50095879
156
Lattice="12.29434013 0.0 0.0 -6.14717148 10.64721006 0.0 0.0 0.0 22.0" Properties=species:S:1:pos:R:3 energy_eV=-1417.4962 mag=-0.947 pbc="T T T"
C       -0.00000072       4.25888403       0.00000000
C        9.83547152       4.25888372       0.00000000
C       -0.00000076       2.83925549       0.00000000
C       11.06490567       2.12944202       0.00000000
C        9.83547183       2.83925580       0.00000000
C        7.37660333       4.25888386       0.00000000
C       11.06490569       0.70981359       0.00000000
C        8.60603778       2.12944171       0.00000000
C        4.91773530       4.25888377       0.00000000
C        7.37660336       2.83925542       0.00000000
C        9.83547208       0.00000024       0.00000000
C        8.60603819       0.70981397       0.00000000
C        6.14716967       2.12944197       0.00000000
C        4.91773581       2.83925570       0.00000000
C        2.45886728       4.25888369       0.00000000
C        3.68830047       9.22758163       0.00000000
C        1.22943257      10.64720975       0.00000000
C        3.68830170       2.12944197       0.00000000
C        6.14716970       0.70981351       0.00000000
C        2.45886754       2.83925567       0.00000000
C        4.91773612       0.00000025       0.00000000
C        1.22943277       9.22758164       0.00000000
C        3.68830216       0.70981383       0.00000000
C        2.45886637       8.51776744       0.00000000
C        1.22943354       2.12944168       0.00000000
C        2.45886658       7.09813932       0.00000000
C       -1.22943551       9.22758156       0.00000000
C       -0.00000139       8.51776734       0.00000000
C       -3.68830369      10.64720970       0.00000000
C        1.22943374       0.70981356       0.00000000
C        1.22943348       6.38832687       0.00000000
C       -3.68830317       9.22758167       0.00000000
C       -0.00000120       7.09813921       0.00000000
C        6.14716846      10.64720972       0.00000000
C       -2.45886969       8.51776727       0.00000000
C        1.22943321       4.96869792       0.00000000
C       -1.22943488       6.38832573       0.00000000
C        6.14716866       9.22758161       0.00000000
C        7.37660258       8.51776748       0.00000000
C       -2.45886948       7.09813914       0.00000000
C       -1.22943445       4.96869802       0.00000000
C        8.60603695       6.38832567       0.00000000
C        7.37660299       7.09813925       0.00000000
C        4.91773449       8.51776730       0.00000000
C        8.60603739       4.96869795       0.00000000
C        6.14716885       6.38832548       0.00000000
C        4.91773444       7.09813877       0.00000000
C        6.14716973       4.96869806       0.00000000
C        3.68830099       6.38832570       0.00000000
C        3.68830073       4.96869676       0.00000000
C       -0.00000072       4.25888403       3.35461664
C        1.22943341       3.54906979       3.35461664
C       -1.22943437       3.54906969       3.35461664
C        9.83547152       4.25888372       3.35461664
C       11.06490567       2.12944202       3.35461664
C        7.37660333       4.25888386       3.35461664
C        8.60603788       3.54906938       3.35461664
C       -0.00000068       1.41962716       3.35461664
C        9.83547197       1.41962759       3.35461664
C        8.60603778       2.12944171       3.35461664
C        6.14716954       3.54906975       3.35461664
C        4.91773530       4.25888377       3.35461664
C        9.83547208       0.00000024       3.35461664
C        4.91773440       9.93739549       3.35461664
C        7.37660421       1.41962750       3.35461664
C        6.14716967       2.12944197       3.35461664
C        3.68830151       3.54906965       3.35461664
C        2.45886728       4.25888369       3.35461664
C        2.45886687       9.93739584       3.35461664
C        1.22943257      10.64720975       3.35461664
C        3.68830170       2.12944197       3.35461664
C        4.91773576       1.41962763       3.35461664
C        4.91773612       0.00000025       3.35461664
C       -0.00000081       9.93739584       3.35461664
C        3.68830062       7.80795341       3.35461664
C        2.45886637       8.51776744       3.35461664
C        2.45886779       1.41962765       3.35461664
C        1.22943354       2.12944168       3.35461664
C       -2.45886932       9.93739589       3.35461664
C        1.22943286       7.80795331       3.35461664
C       -0.00000139       8.51776734       3.35461664
C       -3.68830369      10.64720970       3.35461664
C        1.22943348       6.38832687       3.35461664
C       -1.22943442       7.80795403       3.35461664
C        2.45886690       5.67851139       3.35461664
C       -4.91773730       9.93739591       3.35461664
C        6.14716846      10.64720972       3.35461664
C       -2.45886969       8.51776727       3.35461664
C       -0.00000028       5.67851232       3.35461664
C       -1.22943488       6.38832573       3.35461664
C        7.37660258       8.51776748       3.35461664
C       -3.68830341       7.80795326       3.35461664
C       -2.45886816       5.67851201       3.35461664
C        8.60603695       6.38832567       3.35461664
C        6.14716886       7.80795349       3.35461664
C        4.91773449       8.51776730       3.35461664
C        6.14716885       6.38832548       3.35461664
C        7.37660251       5.67851042       3.35461664
C        3.68830099       6.38832570       3.35461664
C        4.91773492       5.67851158       3.35461664
C        0.09159323       4.24370394       6.63954240
C       -2.36479384       4.24484119       6.63824219
C        0.09327206       2.82507543       6.62863221
C       -1.13602341       2.11635255       6.63425874
C        9.92926921       2.82633318       6.63858510
C        7.47207108       4.24466422       6.63748162
C       11.15954768       0.69715047       6.63708323
C        8.70032331       2.11742361       6.64064958
C        5.01419167       4.24254719       6.63290920
C        7.47116978       2.82561630       6.63792239
C        3.78266558      10.63639984       6.65171825
C        8.70014579       0.69854279       6.65136945
C        6.24227190       2.11554087       6.63239555
C        5.01306963       2.82333060       6.62509262
C        2.55216725       4.24283061       6.64074443
C        3.78490505       9.21822785       6.67757413
C        1.32308217      10.63673444       6.65477544
C        3.78330373       2.11465298       6.62554626
C        6.24116541       0.69723202       6.63966830
C        2.55316894       2.82467930       6.62592309
C       -1.13464121      10.63417259       6.63651706
C        1.32268890       9.21849090       6.68677846
C        3.78350293       0.69567337       6.63113797
C        2.55377886       8.51795665       6.72929586
C        1.32281422       2.11521546       6.62635256
C        2.55229005       7.08479585       6.79649805
C       -1.13477641       9.21444269       6.64701223
C        0.09339968       8.50461938       6.67390614
C       -3.59350061      10.63293606       6.63367177
C        1.32347639       0.69558386       6.63198715
C        1.31167000       6.36683880       6.72071031
C       -3.59390887       9.21332703       6.63394797
C        0.08930994       7.08366493       6.68350538
C       -6.05274388      10.63343868       6.63361933
C       -2.36484988       8.50405617       6.63875008
C        1.31990308       4.94986521       6.66093310
C       -1.13774481       6.37311039       6.65088527
C        6.24169728       9.21370722       6.63978506
C       -4.82314244       8.50394689       6.63466167
C       -2.36533212       7.08439563       6.64048671
C       -1.13646693       4.95395261       6.64410449
C       -3.59398539       6.37400193       6.63559342
C        7.47237670       7.08487050       6.63310369
C        5.01376441       8.50545643       6.65873504
C        8.70112183       4.95445566       6.63947703
C        6.24444748       6.37461603       6.63935315
C        5.01890096       7.08588820       6.66709182
C        6.24346448       4.95448691       6.63734883
C        3.79537003       6.36788539       6.71361183
C        3.78513958       4.94870750       6.65604744
Au       3.65679436       7.00841950      11.50552285
Au       2.94087670       5.41250832      13.47385232
Au       2.70184946       6.84427089       9.08662771
Au       1.69945128       5.24919362      11.07798841
O        0.17428777       4.09855823      10.50383861
H        0.57237116       3.23752017      10.26673030
156
Lattice="12.29434013 0.0 0.0 -6.14717148 10.64721006 0.0 0.0 0.0 22.0" Properties=species:S:1:pos:R:3 energy_eV=-1417.4787 mag=0.9864 pbc="T T T"
C        2.45886762       4.25888403       0.00000000
C        4.91773551       4.25888372       0.00000000
C        2.45886802       2.83925549       0.00000000
C        3.68830192       2.12944201       0.00000000
C        4.91773557       2.83925580       0.00000000
C        7.37660370       4.25888386       0.00000000
C        3.68830226       0.70981359       0.00000000
C        6.14716981       2.12944171       0.00000000
C       -2.45886841       4.25888378       0.00000000
C        7.37660405       2.83925543       0.00000000
C        4.91773609       0.00000023       0.00000000
C        6.14716977       0.70981398       0.00000000
C        8.60603792       2.12944197       0.00000000
C        9.83547159       2.83925570       0.00000000
C       -0.00000037       4.25888371       0.00000000
C       -1.22943490       9.22758164       0.00000000
C        1.22943263      10.64720976       0.00000000
C       -1.22943424       2.12944197       0.00000000
C        8.60603828       0.70981352       0.00000000
C       -0.00000026       2.83925568       0.00000000
C        9.83547204       0.00000025       0.00000000
C        1.22943281       9.22758164       0.00000000
C       11.06490581       0.70981384       0.00000000
C       -0.00000061       8.51776744       0.00000000
C        1.22943393       2.12944169       0.00000000
C       -0.00000044       7.09813931       0.00000000
C        3.68830110       9.22758157       0.00000000
C        2.45886716       8.51776734       0.00000000
C       -6.14717124      10.64720971       0.00000000
C        1.22943409       0.70981357       0.00000000
C        1.22943285       6.38832687       0.00000000
C        6.14716874       9.22758168       0.00000000
C        2.45886734       7.09813920       0.00000000
C       -3.68830325      10.64720974       0.00000000
C        4.91773546       8.51776727       0.00000000
C        1.22943350       4.96869792       0.00000000
C        3.68830121       6.38832574       0.00000000
C       -3.68830308       9.22758161       0.00000000
C       -4.91773682       8.51776749       0.00000000
C        4.91773563       7.09813914       0.00000000
C        3.68830115       4.96869802       0.00000000
C        6.14716952       6.38832567       0.00000000
C        7.37660328       7.09813925       0.00000000
C       -2.45886870       8.51776731       0.00000000
C        6.14716945       4.96869795       0.00000000
C       -3.68830253       6.38832548       0.00000000
C       -2.45886830       7.09813877       0.00000000
C        8.60603710       4.96869807       0.00000000
C       -1.22943466       6.38832572       0.00000000
C       -1.22943402       4.96869677       0.00000000
C        2.45886762       4.25888403       3.35461664
C        1.22943368       3.54906979       3.35461664
C        3.68830145       3.54906968       3.35461664
C        4.91773551       4.25888372       3.35461664
C        3.68830192       2.12944201       3.35461664
C        7.37660370       4.25888386       3.35461664
C        6.14716934       3.54906938       3.35461664
C        2.45886833       1.41962716       3.35461664
C        4.91773581       1.41962758       3.35461664
C        6.14716981       2.12944171       3.35461664
C        8.60603767       3.54906975       3.35461664
C       -2.45886841       4.25888378       3.35461664
C        4.91773609       0.00000023       3.35461664
C       -2.45886901       9.93739549       3.35461664
C        7.37660357       1.41962751       3.35461664
C        8.60603792       2.12944197       3.35461664
C       -1.22943442       3.54906965       3.35461664
C       -0.00000037       4.25888371       3.35461664
C       -0.00000148       9.93739584       3.35461664
C        1.22943263      10.64720976       3.35461664
C       -1.22943424       2.12944197       3.35461664
C        9.83547202       1.41962764       3.35461664
C        9.83547204       0.00000025       3.35461664
C        2.45886622       9.93739584       3.35461664
C       -1.22943466       7.80795341       3.35461664
C       -0.00000061       8.51776744       3.35461664
C       -0.00000014       1.41962766       3.35461664
C        1.22943393       2.12944169       3.35461664
C        4.91773472       9.93739590       3.35461664
C        1.22943311       7.80795330       3.35461664
C        2.45886716       8.51776734       3.35461664
C       -6.14717124      10.64720971       3.35461664
C        1.22943285       6.38832687       3.35461664
C        3.68830040       7.80795403       3.35461664
C       -0.00000038       5.67851139       3.35461664
C       -4.91773744       9.93739591       3.35461664
C       -3.68830325      10.64720974       3.35461664
C        4.91773546       8.51776727       3.35461664
C        2.45886680       5.67851232       3.35461664
C        3.68830121       6.38832574       3.35461664
C       -4.91773682       8.51776749       3.35461664
C        6.14716937       7.80795325       3.35461664
C        4.91773469       5.67851202       3.35461664
C        6.14716952       6.38832567       3.35461664
C       -3.68830290       7.80795349       3.35461664
C       -2.45886870       8.51776731       3.35461664
C       -3.68830253       6.38832548       3.35461664
C        7.37660414       5.67851042       3.35461664
C       -1.22943466       6.38832572       3.35461664
C       -2.45886840       5.67851159       3.35461664
C        2.36565580       4.29411597       6.60895294
C        4.83818915       4.29480569       6.70981960
C        2.37222527       2.87497664       6.58753134
C        3.60183572       2.16136617       6.59127138
C        4.83550746       2.86154193       6.63544985
C        7.29796321       4.29677944       6.63231543
C        3.60446583       0.74485357       6.59509591
C        6.06859355       2.16078893       6.61391785
C        9.75345049       4.29612711       6.62257311
C        7.29443757       2.87567887       6.62010174
C        4.83513458       0.03579513       6.61396404
C        6.06518945       0.74306191       6.61405895
C        8.52290753       2.16659485       6.62269279
C        9.75227359       2.87670970       6.62323080
C       -0.08506104       4.29646885       6.61059090
C       -1.31077508       9.26451617       6.62645102
C        7.29424118       0.03528768       6.62570926
C       10.98121019       2.16718590       6.61534592
C        8.52252567       0.74656559       6.62334060
C       -0.08405798       2.87729831       6.60840820
C        9.75247821       0.03698764       6.62638432
C        1.14692673       9.26439323       6.63200262
C       10.98199363       0.74732352       6.62094333
C       -0.08157445       8.55468224       6.63232519
C        1.14475811       2.16581323       6.59558479
C       -0.08154782       7.13542023       6.63046997
C        3.60422735       9.26424158       6.62776237
C        2.37510971       8.55591535       6.62669186
C       12.21259926       0.03729358       6.61637889
C        1.14703593       0.74614081       6.60224039
C        1.14573448       6.42649342       6.62699017
C        6.06485961       9.26529266       6.62084548
C        2.37317489       7.13828521       6.62707952
C        2.37629782       0.03582777       6.60196994
C        4.83479253       8.55589687       6.62652018
C        1.14253872       5.00692867       6.61036331
C        3.60140833       6.43499787       6.63524281
C       -3.77030633       9.26438120       6.61757503
C        7.29465663       8.55566230       6.61824321
C        4.83412460       7.13798827       6.63140733
C        3.59307018       5.01356046       6.67085377
C        6.06660735       6.42918797       6.63937643
C        7.29566552       7.13715988       6.62758865
C       -2.54036301       8.55500848       6.62312706
C        6.07615224       5.01280516       6.66161133
C        8.52466797       6.42608202       6.62895245
C       -2.54053650       7.13577335       6.62958038
C        8.52578272       5.00681506       6.62696441
C       -1.31138265       6.42611661       6.63028553
C       -1.31279682       5.00662530       6.62134891
Au       3.66195581       3.61934878      11.48988442
Au       2.67413354       5.75081112      10.36761809
Au       4.39248633       4.21546308       8.98652724
Au       5.49408297       2.11163539      10.22519757
O        1.67614544       7.41670990       9.90088251
H        2.20948767       8.15116393      10.26332668
156
Lattice="12.29434013 0.0 0.0 -6.14717148 10.64721006 0.0 0.0 0.0 22.0" Properties=species:S:1:pos:R:3 energy_eV=-1417.4325 mag=0.9486 pbc="T T T"
C       -0.00000072       4.25888403       0.00000000
C        9.83547152       4.25888372       0.00000000
C       -0.00000076       2.83925549       0.00000000
C       11.06490567       2.12944202       0.00000000
C        9.83547183       2.83925580       0.00000000
C        7.37660333       4.25888386       0.00000000
C       11.06490569       0.70981359       0.00000000
C        8.60603778       2.12944171       0.00000000
C        4.91773530       4.25888377       0.00000000
C        7.37660336       2.83925542       0.00000000
C        9.83547208       0.00000024       0.00000000
C        8.60603819       0.70981397       0.00000000
C        6.14716967       2.12944197       0.00000000
C        4.91773581       2.83925570       0.00000000
C        2.45886728       4.25888369       0.00000000
C        3.68830047       9.22758163       0.00000000
C        1.22943257      10.64720975       0.00000000
C        3.68830170       2.12944197       0.00000000
C        6.14716970       0.70981351       0.00000000
C        2.45886754       2.83925567       0.00000000
C        4.91773612       0.00000025       0.00000000
C        1.22943277       9.22758164       0.00000000
C        3.68830216       0.70981383       0.00000000
C        2.45886637       8.51776744       0.00000000
C        1.22943354       2.12944168       0.00000000
C        2.45886658       7.09813932       0.00000000
C       -1.22943551       9.22758156       0.00000000
C       -0.00000139       8.51776734       0.00000000
C       -3.68830369      10.64720970       0.00000000
C        1.22943374       0.70981356       0.00000000
C        1.22943348       6.38832687       0.00000000
C       -3.68830317       9.22758167       0.00000000
C       -0.00000120       7.09813921       0.00000000
C        6.14716846      10.64720972       0.00000000
C       -2.45886969       8.51776727       0.00000000
C        1.22943321       4.96869792       0.00000000
C       -1.22943488       6.38832573       0.00000000
C        6.14716866       9.22758161       0.00000000
C        7.37660258       8.51776748       0.00000000
C       -2.45886948       7.09813914       0.00000000
C       -1.22943445       4.96869802       0.00000000
C        8.60603695       6.38832567       0.00000000
C        7.37660299       7.09813925       0.00000000
C        4.91773449       8.51776730       0.00000000
C        8.60603739       4.96869795       0.00000000
C        6.14716885       6.38832548       0.00000000
C        4.91773444       7.09813877       0.00000000
C        6.14716973       4.96869806       0.00000000
C        3.68830099       6.38832570       0.00000000
C        3.68830073       4.96869676       0.00000000
C       -0.00000072       4.25888403       3.35461664
C        1.22943341       3.54906979       3.35461664
C       -1.22943437       3.54906969       3.35461664
C        9.83547152       4.25888372       3.35461664
C       11.06490567       2.12944202       3.35461664
C        7.37660333       4.25888386       3.35461664
C        8.60603788       3.54906938       3.35461664
C       -0.00000068       1.41962716       3.35461664
C        9.83547197       1.41962759       3.35461664
C        8.60603778       2.12944171       3.35461664
C        6.14716954       3.54906975       3.35461664
C        4.91773530       4.25888377       3.35461664
C        9.83547208       0.00000024       3.35461664
C        4.91773440       9.93739549       3.35461664
C        7.37660421       1.41962750       3.35461664
C        6.14716967       2.12944197       3.35461664
C        3.68830151       3.54906965       3.35461664
C        2.45886728       4.25888369       3.35461664
C        2.45886687       9.93739584       3.35461664
C        1.22943257      10.64720975       3.35461664
C        3.68830170       2.12944197       3.35461664
C        4.91773576       1.41962763       3.35461664
C        4.91773612       0.00000025       3.35461664
C       -0.00000081       9.93739584       3.35461664
C        3.68830062       7.80795341       3.35461664
C        2.45886637       8.51776744       3.35461664