155
Lattice="12.29434013 0.0 0.0 -6.14717148 10.64721006 0.0 0.0 0.0 22.0" Properties=species:S:1:pos:R:3 energy_eV=-1413.2007 mag=-0.0 pbc="T T T"
C        3.68830168       2.12944215       0.00000000
C        2.45886772       4.25888419       0.00000000
C        4.91773595       2.83925661       0.00000000
C        4.91773540       4.25888415       0.00000000
C        3.68830162       4.96869803       0.00000000
C        1.22943322       6.38832627       0.00000000
C        6.14716961       4.96869852       0.00000000
C        3.68830145       6.38832619       0.00000000
C       -0.00000101       8.51776833       0.00000000
C        2.45886743       7.09814063       0.00000000
C        6.14716901       6.38832594       0.00000000
C        4.91773524       7.09813988       0.00000000
C        2.45886688       8.51776816       0.00000000
C        1.22943313       9.22758209       0.00000000
C        4.91773625       0.00000034       0.00000000
C        7.37660333       7.09814055       0.00000000
C        4.91773518       8.51776822       0.00000000
C        7.37660409       0.00000007       0.00000000
C        3.68830110       9.22758254       0.00000000
C        6.14717021       0.70981427       0.00000000
C        3.68830044      10.64720988       0.00000000
C        6.14716919       9.22758227       0.00000000
C        8.60603826       0.70981390       0.00000000
C       -4.91773692       8.51776881       0.00000000
C        6.14716998       2.12944234       0.00000000
C       -3.68830289       9.22758286       0.00000000
C       11.06490630       0.70981449       0.00000000
C        0.00000049       0.00000059       0.00000000
C        8.60603800       2.12944239       0.00000000
C        7.37660400       2.83925639       0.00000000
C       -3.68830401      10.64720938       0.00000000
C        9.83547210       2.83925612       0.00000000
C        1.22943451       0.70981464       0.00000000
C        7.37660370       4.25888435       0.00000000
C       -1.22943389       2.12944286       0.00000000
C        3.68830197       0.70981419       0.00000000
C        1.22943399       2.12944218       0.00000000
C        8.60603772       4.96869841       0.00000000
C       -2.45886830       4.25888462       0.00000000
C        0.00000014       2.83925692       0.00000000
C        2.45886777       2.83925582       0.00000000
C       -0.00000040       4.25888446       0.00000000
C       -1.22943407       4.96869854       0.00000000
C       -3.68830247       6.38832678       0.00000000
C        1.22943340       4.96869810       0.00000000
C       -1.22943456       6.38832662       0.00000000
C       -2.45886821       7.09814126       0.00000000
C       -0.00000082       7.09813974       0.00000000
C       -2.45886897       8.51776839       0.00000000
C       -1.22943447       9.22758326       0.00000000
C        3.68830168       2.12944215       3.35461664
C        4.91773600       1.41962823       3.35461664
C        3.68830192       3.54907008       3.35461664
C        2.45886772       4.25888419       3.35461664
C        4.91773540       4.25888415       3.35461664
C        1.22943322       6.38832627       3.35461664
C        2.45886795       5.67851212       3.35461664
C        6.14717009       3.54907087       3.35461664
C        4.91773570       5.67851219       3.35461664
C        3.68830145       6.38832619       3.35461664
C        1.22943319       7.80795421       3.35461664
C       -0.00000101       8.51776833       3.35461664
C        6.14716901       6.38832594       3.35461664
C        7.37660365       5.67851260       3.35461664
C        3.68830160       7.80795402       3.35461664
C        2.45886688       8.51776816       3.35461664
C       -0.00000102       9.93739629       3.35461664
C        4.91773625       0.00000034       3.35461664
C        6.14716930       7.80795401       3.35461664
C        4.91773518       8.51776822       3.35461664
C        7.37660409       0.00000007       3.35461664
C        2.45886699       9.93739633       3.35461664
C        3.68830044      10.64720988       3.35461664
C        4.91773517       9.93739573       3.35461664
C       -3.68830272       7.80795470       3.35461664
C       -4.91773692       8.51776881       3.35461664
C        7.37660418       1.41962823       3.35461664
C        6.14716998       2.12944234       3.35461664
C        9.83547207       1.41962807       3.35461664
C       -4.91773680       9.93739653       3.35461664
C        0.00000049       0.00000059       3.35461664
C        8.60603800       2.12944239       3.35461664
C       -3.68830401      10.64720938       3.35461664
C        0.00000013       1.41962748       3.35461664
C       -2.45886897       9.93739670       3.35461664
C        8.60603778       3.54907004       3.35461664
C        7.37660370       4.25888435       3.35461664
C       -1.22943389       2.12944286       3.35461664
C        2.45886783       1.41962745       3.35461664
C        1.22943399       2.12944218       3.35461664
C       -2.45886830       4.25888462       3.35461664
C       -1.22943398       3.54907071       3.35461664
C        1.22943386       3.54906949       3.35461664
C       -0.00000040       4.25888446       3.35461664
C       -2.45886839       5.67851245       3.35461664
C       -3.68830247       6.38832678       3.35461664
C       -1.22943456       6.38832662       3.35461664
C        0.00000023       5.67851354       3.35461664
C       -2.45886897       8.51776839       3.35461664
C       -1.22943486       7.80795459       3.35461664
C        3.64672181       2.05055057       6.67382611
C        2.42720620       4.16979262       6.77568021
C        4.87558597       2.75902096       6.66145588
C        4.87579655       4.17691962       6.68154952
C        3.64647977       4.87485271       6.75565393
C        1.17758518       6.32146454       6.89540290
C        6.10932057       4.88738927       6.67006346
C        3.64116855       6.30764821       6.85580313
C       -0.04866423       8.44212187       6.70031585
C        2.41454243       7.03460121       6.80598615
C        6.12047659       6.30414977       6.72267994
C        4.88789546       7.02592487       6.83942343
C        2.41414761       8.44076614       6.72090061
C        1.18244210       9.14991283       6.69674312
C       -1.27452786      10.57002253       6.66499827
C        7.33862261       7.01946459       6.67894813
C        4.87678414       8.45655821       6.75066289
C        1.18415435      10.56647814       6.66720049
C        3.64644892       9.15395211       6.70677093
C        6.10262139       0.63071552       6.65720422
C        3.64404908      10.57115609       6.67261292
C        6.10696673       9.15594787       6.70542223
C        8.56206508       0.63088800       6.66050882
C        7.33337582       8.44293794       6.69090357
C        6.10456022       2.04964238       6.64820697
C       -3.73461206       9.15144547       6.67701273
C       11.02102946       0.63299233       6.67486928
C        6.10339842      10.57437337       6.68577726
C        8.56121434       2.04969956       6.64774366
C        7.33345423       2.75801167       6.64080517
C       -3.73211563      10.57179275       6.67958521
C        9.79109750       2.76029465       6.65879615
C        1.18618322       0.63567825       6.68566894
C        7.33582138       4.17920087       6.63935251
C       11.01840882       2.05099592       6.67311550
C        3.64381348       0.63232185       6.67066618
C        1.18484422       2.05245843       6.70439269
C        8.56326913       4.89003680       6.63849354
C        9.79104443       4.17913395       6.65244934
C       -0.04766925       2.75962381       6.70711502
C        2.41818970       2.75864758       6.70754236
C       -0.05805858       4.17346763       6.76514808
C       -1.27558354       4.88775027       6.69357849
C        8.56413211       6.31059975       6.64400847
C        1.18423974       4.87934639       6.90835526
C       -1.27661762       6.31334007       6.68862954
C       -2.50339214       7.02197119       6.65394765
C       -0.05956072       7.02771371       6.75157289
C       -2.50547469       8.44118760       6.66663407
C       -1.27697953       9.15101273       6.67060737
Au       1.15677637       5.56297263       9.07168124
Au       5.49152518       6.95335864      11.45802053
Au       3.03418496       6.10984605      11.24094279
Au       4.42077179       6.69433225       9.07306480
O        1.13800556       5.50107465      11.03387490
155
Lattice="12.29434013 0.0 0.0 -6.14717148 10.64721006 0.0 0.0 0.0 22.0" Properties=species:S:1:pos:R:3 energy_eV=-1413.1991 mag=-0.0 pbc="T T T"
C        3.68830168       2.12944215       0.00000000
C        2.45886772       4.25888419       0.00000000
C        4.91773595       2.83925661       0.00000000
C        4.91773540       4.25888415       0.00000000
C        3.68830162       4.96869803       0.00000000
C        1.22943322       6.38832627       0.00000000
C        6.14716961       4.96869852       0.00000000
C        3.68830145       6.38832619       0.00000000
C       -0.00000101       8.51776833       0.00000000
C        2.45886743       7.09814063       0.00000000
C        6.14716901       6.38832594       0.00000000
C        4.91773524       7.09813988       0.00000000
C        2.45886688       8.51776816       0.00000000
C        1.22943313       9.22758209       0.00000000
C        4.91773625       0.00000034       0.00000000
C        7.37660333       7.09814055       0.00000000
C        4.91773518       8.51776822       0.00000000
C        7.37660409       0.00000007       0.00000000
C        3.68830110       9.22758254       0.00000000
C        6.14717021       0.70981427       0.00000000
C        3.68830044      10.64720988       0.00000000
C        6.14716919       9.22758227       0.00000000
C        8.60603826       0.70981390       0.00000000
C       -4.91773692       8.51776881       0.00000000
C        6.14716998       2.12944234       0.00000000
C       -3.68830289       9.22758286       0.00000000
C       11.06490630       0.70981449       0.00000000
C        0.00000049       0.00000059       0.00000000
C        8.60603800       2.12944239       0.00000000
C        7.37660400       2.83925639       0.00000000
C       -3.68830401      10.64720938       0.00000000
C        9.83547210       2.83925612       0.00000000
C        1.22943451       0.70981464       0.00000000
C        7.37660370       4.25888435       0.00000000
C       -1.22943389       2.12944286       0.00000000
C        3.68830197       0.70981419       0.00000000
C        1.22943399       2.12944218       0.00000000
C        8.60603772       4.96869841       0.00000000
C       -2.45886830       4.25888462       0.00000000
C        0.00000014       2.83925692       0.00000000
C        2.45886777       2.83925582       0.00000000
C       -0.00000040       4.25888446       0.00000000
C       -1.22943407       4.96869854       0.00000000
C       -3.68830247       6.38832678       0.00000000
C        1.22943340       4.96869810       0.00000000
C       -1.22943456       6.38832662       0.00000000
C       -2.45886821       7.09814126       0.00000000
C       -0.00000082       7.09813974       0.00000000
C       -2.45886897       8.51776839       0.00000000
C       -1.22943447       9.22758326       0.00000000
C        3.68830168       2.12944215       3.35461664
C        4.91773600       1.41962823       3.35461664
C        3.68830192       3.54907008       3.35461664
C        2.45886772       4.25888419       3.35461664
C        4.91773540       4.25888415       3.35461664
C        1.22943322       6.38832627       3.35461664
C        2.45886795       5.67851212       3.35461664
C        6.14717009       3.54907087       3.35461664
C        4.91773570       5.67851219       3.35461664
C        3.68830145       6.38832619       3.35461664
C        1.22943319       7.80795421       3.35461664
C       -0.00000101       8.51776833       3.35461664
C        6.14716901       6.38832594       3.35461664
C        7.37660365       5.67851260       3.35461664
C        3.68830160       7.80795402       3.35461664
C        2.45886688       8.51776816       3.35461664
C       -0.00000102       9.93739629       3.35461664
C        4.91773625       0.00000034       3.35461664
C        6.14716930       7.80795401       3.35461664
C        4.91773518       8.51776822       3.35461664
C        7.37660409       0.00000007       3.35461664
C        2.45886699       9.93739633       3.35461664
C        3.68830044      10.64720988       3.35461664
C        4.91773517       9.93739573       3.35461664
C       -3.68830272       7.80795470       3.35461664
C       -4.91773692       8.51776881       3.35461664
C        7.37660418       1.41962823       3.35461664
C        6.14716998       2.12944234       3.35461664
C        9.83547207       1.41962807       3.35461664
C       -4.91773680       9.93739653       3.35461664
C        0.00000049       0.00000059       3.35461664
C        8.60603800       2.12944239       3.35461664
C       -3.68830401      10.64720938       3.35461664
C        0.00000013       1.41962748       3.35461664
C       -2.45886897       9.93739670       3.35461664
C        8.60603778       3.54907004       3.35461664
C        7.37660370       4.25888435       3.35461664
C       -1.22943389       2.12944286       3.35461664
C        2.45886783       1.41962745       3.35461664
C        1.22943399       2.12944218       3.35461664
C       -2.45886830       4.25888462       3.35461664
C       -1.22943398       3.54907071       3.35461664
C        1.22943386       3.54906949       3.35461664
C       -0.00000040       4.25888446       3.35461664
C       -2.45886839       5.67851245       3.35461664
C       -3.68830247       6.38832678       3.35461664
C       -1.22943456       6.38832662       3.35461664
C        0.00000023       5.67851354       3.35461664
C       -2.45886897       8.51776839       3.35461664
C       -1.22943486       7.80795459       3.35461664
C        3.61262159       2.05824040       6.68063808
C        2.39608836       4.19681472       6.61900864
C        4.85538528       2.76362897       6.79769471
C        4.85907068       4.20028759       6.79015712
C        3.61512808       4.90223585       6.68275141
C        1.15321613       6.32018714       6.64585911
C        6.10048934       4.91173618       6.68513122
C        3.63309355       6.32229085       6.71908701
C       -0.06188294       8.45817210       6.62041577
C        2.38918680       7.03971965       6.72931859
C        6.09239723       6.32642209       6.64344030
C        4.86523269       7.03725962       6.66501759
C        2.39644349       8.46995438       6.66379521
C        1.16524309       9.17030449       6.62758043
C       -1.29020336      10.58609507       6.63954670
C        7.31859016       7.03616595       6.61131369
C        4.85890362       8.45422476       6.62695447
C        1.17027054      10.58685562       6.61868305
C        3.62859242       9.16883782       6.62820091
C        6.08925437       0.64641977       6.64417111
C        3.62874624      10.58672107       6.60764921
C        6.08742618       9.16411001       6.61010448
C        8.54626343       0.64825838       6.61369110
C        7.31625507       8.45411575       6.60796499
C        6.09962968       2.05898880       6.69279912
C       -3.74947517       9.16373186       6.60971501
C       11.00447894       0.64698443       6.59893488
C        6.08594393      10.58415181       6.60320230
C        8.54680937       2.06659214       6.60961783
C        7.31874910       2.77411156       6.64138663
C       -3.75128840      10.58224499       6.61449468
C        9.77489152       2.77682879       6.59677153
C        1.16694534       0.64596022       6.60564976
C        7.31956486       4.19884325       6.63749945
C       11.00376486       2.06751422       6.59062643
C        3.62326367       0.64482422       6.64296059
C        1.16610948       2.06499140       6.59600128
C        8.54680740       4.90738358       6.60729379
C        9.77487911       4.19655995       6.59661006
C       -0.06319271       2.77519133       6.58574377
C        2.39372769       2.77246356       6.61976076
C       -0.06395172       4.19536282       6.58803996
C       -1.29152328       4.90562451       6.59496234
C        8.54631482       6.32646221       6.60546158
C        1.16324291       4.90449049       6.60503062
C       -1.29362810       6.32691924       6.60009485
C       -2.52073423       7.03682284       6.60294802
C       -0.06739462       7.03727337       6.61743739
C       -2.52042787       8.45633741       6.60920211
C       -1.29064661       9.16835572       6.61816736
Au       4.85159738       3.53842259       8.96182786
Au       2.23161181       7.38564308      11.48768573
Au       2.71426907       6.86023474       8.98892667
Au       3.71567182       5.31042342      10.93903949
O        4.87740869       3.67713981      10.92209784
155
Lattice="12.29434013 0.0 0.0 -6.14717148 10.64721006 0.0 0.0 0.0 22.0" Properties=species:S:1:pos:R:3 energy_eV=-1413.1012 mag=-0.0 pbc="T T T"
C        3.68830168       2.12944215       0.00000000
C        2.45886772       4.25888419       0.00000000
C        4.91773595       2.83925661       0.00000000
C        4.91773540       4.25888415       0.00000000
C        3.68830162       4.96869803       0.00000000
C        1.22943322       6.38832627       0.00000000
C        6.14716961       4.96869852       0.00000000
C        3.68830145       6.38832619       0.00000000
C       -0.00000101       8.51776833       0.00000000
C        2.45886743       7.09814063       0.00000000
C        6.14716901       6.38832594       0.00000000
C        4.91773524       7.09813988       0.00000000
C        2.45886688       8.51776816       0.00000000
C        1.22943313       9.22758209       0.00000000
C        4.91773625       0.00000034       0.00000000
C        7.37660333       7.09814055       0.00000000
C        4.91773518       8.51776822       0.00000000
C        7.37660409       0.00000007       0.00000000
C        3.68830110       9.22758254       0.00000000
C        6.14717021       0.70981427       0.00000000
C        3.68830044      10.64720988       0.00000000
C        6.14716919       9.22758227       0.00000000
C        8.60603826       0.70981390       0.00000000
C       -4.91773692       8.51776881       0.00000000
C        6.14716998       2.12944234       0.00000000
C       -3.68830289       9.22758286       0.00000000
C       11.06490630       0.70981449       0.00000000
C        0.00000049       0.00000059       0.00000000
C        8.60603800       2.12944239       0.00000000
C        7.37660400       2.83925639       0.00000000
C       -3.68830401      10.64720938       0.00000000
C        9.83547210       2.83925612       0.00000000
C        1.22943451       0.70981464       0.00000000
C        7.37660370       4.25888435       0.00000000
C       -1.22943389       2.12944286       0.00000000
C        3.68830197       0.70981419       0.00000000
C        1.22943399       2.12944218       0.00000000
C        8.60603772       4.96869841       0.00000000
C       -2.45886830       4.25888462       0.00000000
C        0.00000014       2.83925692       0.00000000
C        2.45886777       2.83925582       0.00000000
C       -0.00000040       4.25888446       0.00000000
C       -1.22943407       4.96869854       0.00000000
C       -3.68830247       6.38832678       0.00000000
C        1.22943340       4.96869810       0.00000000
C       -1.22943456       6.38832662       0.00000000
C       -2.45886821       7.09814126       0.00000000
C       -0.00000082       7.09813974       0.00000000
C       -2.45886897       8.51776839       0.00000000
C       -1.22943447       9.22758326       0.00000000
C        3.68830168       2.12944215       3.35461664
C        4.91773600       1.41962823       3.35461664
C        3.68830192       3.54907008       3.35461664
C        2.45886772       4.25888419       3.35461664
C        4.91773540       4.25888415       3.35461664
C        1.22943322       6.38832627       3.35461664
C        2.45886795       5.67851212       3.35461664
C        6.14717009       3.54907087       3.35461664
C        4.91773570       5.67851219       3.35461664
C        3.68830145       6.38832619       3.35461664
C        1.22943319       7.80795421       3.35461664
C       -0.00000101       8.51776833       3.35461664
C        6.14716901       6.38832594       3.35461664
C        7.37660365       5.67851260       3.35461664
C        3.68830160       7.80795402       3.35461664
C        2.45886688       8.51776816       3.35461664
C       -0.00000102       9.93739629       3.35461664
C        4.91773625       0.00000034       3.35461664
C        6.14716930       7.80795401       3.35461664
C        4.91773518       8.51776822       3.35461664
C        7.37660409       0.00000007       3.35461664
C        2.45886699       9.93739633       3.35461664
C        3.68830044      10.64720988       3.35461664
C        4.91773517       9.93739573       3.35461664
C       -3.68830272       7.80795470       3.35461664
C       -4.91773692       8.51776881       3.35461664
C        7.37660418       1.41962823       3.35461664
C        6.14716998       2.12944234       3.35461664
C        9.83547207       1.41962807       3.35461664
C       -4.91773680       9.93739653       3.35461664
C        0.00000049       0.00000059       3.35461664
C        8.60603800       2.12944239       3.35461664
C       -3.68830401      10.64720938       3.35461664
C        0.00000013       1.41962748       3.35461664
C       -2.45886897       9.93739670       3.35461664
C        8.60603778       3.54907004       3.35461664
C        7.37660370       4.25888435       3.35461664
C       -1.22943389       2.12944286       3.35461664
C        2.45886783       1.41962745       3.35461664
C        1.22943399       2.12944218       3.35461664
C       -2.45886830       4.25888462       3.35461664
C       -1.22943398       3.54907071       3.35461664
C        1.22943386       3.54906949       3.35461664
C       -0.00000040       4.25888446       3.35461664
C       -2.45886839       5.67851245       3.35461664
C       -3.68830247       6.38832678       3.35461664
C       -1.22943456       6.38832662       3.35461664
C        0.00000023       5.67851354       3.35461664
C       -2.45886897       8.51776839       3.35461664
C       -1.22943486       7.80795459       3.35461664
C        3.67179067       2.17950619       6.61746218
C        2.42911885       4.32392901       6.74125751
C        4.89155542       2.89654544       6.56265270
C        4.88911545       4.31987197       6.57331215
C        3.67000263       5.02268322       6.66301529
C        1.18406752       6.44260009       6.69439098
C        6.11875841       5.03176997       6.56933340
C        3.67237369       6.44907745       6.75919571
C       -0.02894162       8.57741327       6.62497202
C        2.42096070       7.16440442       6.79736888
C        6.12212714       6.45262974       6.58517092
C        4.90291967       7.16980938       6.63191440
C        2.42897289       8.59472195       6.67449684
C        1.19910779       9.29201685       6.62732776
C        4.89205610       0.05713675       6.58808860
C        7.35012455       7.16219002       6.58097469
C        4.89213378       8.58247768       6.59819400
C        7.34683881       0.06241605       6.58842155
C        3.65699120       9.29317828       6.61555483
C        6.11799097       0.76900944       6.57798634
C        9.80344828       0.06290545       6.59375351
C        6.11843863       9.28991606       6.58001228
C        8.57443427       0.77165208       6.58708202
C       -4.94602799       8.58072159       6.58758779
C        6.11915721       2.18897940       6.56138906
C       -3.71614894       9.28861786       6.60511322
C       11.03325471       0.77194131       6.59959243
C       -0.03188583       0.06055535       6.59384539
C        8.57456753       2.19232163       6.58430436
C        7.34578776       2.90067838       6.57137425
C        2.43060961       0.05804162       6.61995708
C        9.80199833       2.90228900       6.59763918
C        1.19552855       0.76689332       6.62084734
C        7.34501372       4.32186613       6.56970621
C       -1.26274443       2.19002541       6.60859816
C        3.66192556       0.76319834       6.60554155
C        1.18544185       2.18032269       6.65438105
C        8.57556384       5.03113298       6.58166560
C       -2.49156923       4.32011846       6.59269345
C       -0.03590748       2.89831718       6.62759496
C        2.42832853       2.88649345       6.72291319
C       -0.03523353       4.31983835       6.62979936
C       -1.26261211       5.02893416       6.60732626
C       -3.71720634       6.44995562       6.58404127
C        1.18575491       5.03337445       6.68047428
C       -1.26264540       6.44735842       6.60878746
C       -2.48896460       7.15918500       6.59592850
C       -0.03475014       7.15644395       6.63762233
C       -2.48704566       8.57683264       6.59939328
C       -1.25628152       9.28469442       6.60085026
Au       3.28867774       4.90091579      11.04820444
Au       3.12825190       6.87019780       8.94970166
Au       3.51813784       2.30030272      11.20059493
Au       2.68708460       3.38544708       8.95974283
O        3.25592602       6.90056996      10.91675718
155
Lattice="12.29434013 0.0 0.0 -6.14717148 10.64721006 0.0 0.0 0.0 22.0" Properties=species:S:1:pos:R:3 energy_eV=-1413.0438 mag=0.0 pbc="T T T"
C        3.68830054      10.64720991       0.00000000
C        2.45886661       8.51776818       0.00000000
C        8.60603735       0.70981394       0.00000000
C        1.22943252      10.64720991       0.00000000
C        1.22943266       9.22758225       0.00000000
C        1.22943292       6.38832597       0.00000000
C        6.14716944       0.70981394       0.00000000
C       -0.00000141       8.51776818       0.00000000
C       -0.00000088       4.25888400       0.00000000
C       -0.00000162       7.09814005       0.00000000
C       -1.22943523      10.64720991       0.00000000
C       -1.22943516       9.22758225       0.00000000
C       -1.22943496       6.38832597       0.00000000
C       -1.22943488       4.96869830       0.00000000
C       11.06490545       2.12944202       0.00000000
C        3.68830141       0.70981394       0.00000000
C       -2.45886943       8.51776819       0.00000000
C        9.83547147       4.25888400       0.00000000
C       -2.45886954       7.09814005       0.00000000
C        9.83547138       2.83925608       0.00000000
C       -3.68830263       6.38832597       0.00000000
C       -3.68830363       9.22758226       0.00000000
C        8.60603739       4.96869830       0.00000000
C       -3.68830424      10.64720992       0.00000000
C        8.60603742       2.12944201       0.00000000
C        1.22943304       0.70981394       0.00000000
C        7.37660258       7.09814005       0.00000000
C        7.37660220       8.51776819       0.00000000
C        7.37660309       4.25888399       0.00000000
C        7.37660323       2.83925608       0.00000000
C       -6.14717060      10.64720992       0.00000000
C        6.14716913       4.96869830       0.00000000
C        6.14716800       9.22758224       0.00000000
C        6.14716941       2.12944201       0.00000000
C        6.14716828       6.38832596       0.00000000
C       11.06490585       0.70981393       0.00000000
C        4.91773464       8.51776818       0.00000000
C        4.91773520       2.83925608       0.00000000
C        4.91773482       4.25888399       0.00000000
C        4.91773408       7.09814004       0.00000000
C        3.68830092       9.22758225       0.00000000
C        3.68830073       6.38832596       0.00000000
C        3.68830063       4.96869829       0.00000000
C        3.68830090       2.12944201       0.00000000
C        2.45886700       7.09814004       0.00000000
C        2.45886680       4.25888399       0.00000000
C        2.45886623       2.83925608       0.00000000
C        1.22943355       4.96869830       0.00000000
C        1.22943335       2.12944201       0.00000000
C       -0.00000180       2.83925608       0.00000000
C        3.68830054      10.64720991       3.35461664
C        9.83547165       1.41962801       3.35461664
C        2.45886648       9.93739632       3.35461664
C        2.45886661       8.51776818       3.35461664
C        1.22943252      10.64720991       3.35461664
C        1.22943292       6.38832597       3.35461664
C        1.22943256       7.80795459       3.35461664
C        7.37660290       1.41962801       3.35461664
C       -0.00000166       9.93739632       3.35461664
C       -0.00000141       8.51776818       3.35461664
C       -0.00000101       5.67851213       3.35461664
C       -0.00000088       4.25888400       3.35461664
C       -1.22943523      10.64720991       3.35461664
C        4.91773520       1.41962801       3.35461664
C       -1.22943533       7.80795459       3.35461664
C       -1.22943496       6.38832597       3.35461664
C       -1.22943483       3.54907016       3.35461664
C       11.06490545       2.12944202       3.35461664
C       -2.45886945       9.93739632       3.35461664
C       -2.45886943       8.51776819       3.35461664
C        9.83547147       4.25888400       3.35461664
C       -2.45886916       5.67851214       3.35461664
C       -3.68830263       6.38832597       3.35461664
C       -3.68830302       7.80795459       3.35461664
C        2.45886710       1.41962800       3.35461664
C       -3.68830424      10.64720992       3.35461664
C        8.60603729       3.54907015       3.35461664
C        8.60603742       2.12944201       3.35461664
C        7.37660319       5.67851213       3.35461664