157
Lattice="12.29434013 0.0 0.0 -6.14717148 10.64721006 0.0 0.0 0.0 22.0" Properties=species:S:1:pos:R:3 energy_eV=-1430.0486 mag=0.9774 pbc="T T T"
C        4.91773543       4.25888390       0.00000000
C        3.68830150       2.12944215       0.00000000
C        3.68830075       4.96869795       0.00000000
C        2.45886739       4.25888389       0.00000000
C        2.45886754       2.83925621       0.00000000
C       -3.68830368      10.64720999       0.00000000
C        1.22943283       4.96869795       0.00000000
C        1.22943347       2.12944215       0.00000000
C        7.37660265       8.51776803       0.00000000
C        1.22943325       0.70981400       0.00000000
C       -0.00000038       4.25888388       0.00000000
C       -0.00000029       2.83925620       0.00000000
C        6.14716856      10.64721000       0.00000000
C        6.14716864       9.22758233       0.00000000
C        6.14716884       6.38832605       0.00000000
C       -1.22943520       4.96869795       0.00000000
C       11.06490556       2.12944215       0.00000000
C        4.91773485       8.51776803       0.00000000
C       11.06490545       0.70981400       0.00000000
C        4.91773477       7.09814011       0.00000000
C        3.68830086      10.64720999       0.00000000
C        9.83547136       2.83925621       0.00000000
C        3.68830077       9.22758233       0.00000000
C        9.83547075       4.25888389       0.00000000
C        3.68830082       6.38832605       0.00000000
C        8.60603655       4.96869795       0.00000000
C        8.60603743       0.70981401       0.00000000
C        8.60603706       2.12944215       0.00000000
C        2.45886647       8.51776803       0.00000000
C        2.45886662       7.09814011       0.00000000
C        7.37660439       4.25888389       0.00000000
C        1.22943250       9.22758233       0.00000000
C        7.37660286       2.83925621       0.00000000
C        1.22943278       6.38832604       0.00000000
C        1.22943166      10.64721000       0.00000000
C        6.14716924       4.96869795       0.00000000
C        6.14716952       2.12944216       0.00000000
C       -0.00000142       7.09814012       0.00000000
C       -0.00000180       8.51776802       0.00000000
C        6.14716893       0.70981401       0.00000000
C        4.91773579       2.83925621       0.00000000
C       -1.22943590      10.64720999       0.00000000
C       -1.22943599       9.22758233       0.00000000
C       -1.22943572       6.38832603       0.00000000
C        3.68830186       0.70981401       0.00000000
C       -2.45886982       8.51776802       0.00000000
C       -2.45887039       7.09814011       0.00000000
C       -3.68830306       9.22758233       0.00000000
C        8.60603686       6.38832604       0.00000000
C        7.37660171       7.09814011       0.00000000
C        4.91773543       4.25888390       3.35461664
C        4.91773505       5.67851202       3.35461664
C        3.68830136       3.54907028       3.35461664
C        3.68830150       2.12944215       3.35461664
C        2.45886739       4.25888389       3.35461664
C       -3.68830368      10.64720999       3.35461664
C        2.45886743       1.41962855       3.35461664
C        2.45886629       5.67851202       3.35461664
C        1.22943321       3.54907028       3.35461664
C        1.22943347       2.12944215       3.35461664
C       -4.91773762       9.93739616       3.35461664
C        7.37660265       8.51776803       3.35461664
C       -0.00000038       4.25888388       3.35461664
C       -0.00000141       5.67851203       3.35461664
C       -0.00000046       1.41962854       3.35461664
C        6.14716856      10.64721000       3.35461664
C        6.14716869       7.80795418       3.35461664
C        6.14716884       6.38832605       3.35461664
C       -1.22943459       3.54907028       3.35461664
C       11.06490556       2.12944215       3.35461664
C        4.91773485       8.51776803       3.35461664
C        4.91773435       9.93739616       3.35461664
C        3.68830086      10.64720999       3.35461664
C        9.83547197       1.41962855       3.35461664
C       -2.45886952       5.67851202       3.35461664
C        9.83547075       4.25888389       3.35461664
C        3.68830067       7.80795418       3.35461664
C        3.68830082       6.38832605       3.35461664
C        2.45886657       9.93739616       3.35461664
C        8.60603693       3.54907028       3.35461664
C        8.60603706       2.12944215       3.35461664
C        2.45886647       8.51776803       3.35461664
C        7.37660439       4.25888389       3.35461664
C        7.37660419       1.41962855       3.35461664
C        7.37660258       5.67851202       3.35461664
C        1.22943288       7.80795419       3.35461664
C        1.22943278       6.38832604       3.35461664
C        1.22943166      10.64721000       3.35461664
C        6.14717009       3.54907029       3.35461664
C        6.14716952       2.12944216       3.35461664
C       -0.00000180       8.51776802       3.35461664
C       -0.00000217       9.93739616       3.35461664
C        4.91773616       1.41962855       3.35461664
C       -1.22943590      10.64720999       3.35461664
C       -1.22943561       7.80795419       3.35461664
C       -1.22943572       6.38832603       3.35461664
C       -2.45886982       8.51776802       3.35461664
C       -2.45887115       9.93739617       3.35461664
C        8.60603686       6.38832604       3.35461664
C       -3.68830364       7.80795395       3.35461664
C        4.91717625       4.27505109       6.70319276
C        3.69715881       2.13378175       6.73568229
C        3.69816224       4.99274967       6.72864196
C        2.46342515       4.28341748       6.85990328
C        2.46042938       2.83914161       6.85769103
C        2.45701070       0.00631808       6.68939785
C        1.21526974       4.99381689       6.81520899
C        1.21302166       2.13319896       6.76148981
C       -4.92342691       8.52897182       6.68451349
C        1.22099159       0.70785882       6.70949573
C       -0.01751602       4.27373933       6.75378364
C       -0.01911892       2.85551041       6.73524845
C       12.28374417       0.00661537       6.68769635
C        6.13991306       9.23754590       6.67998876
C        6.14208452       6.40259429       6.67868179
C       -1.23918546       4.98405612       6.71469068
C       11.05145514       2.14084192       6.69415282
C        4.91054025       8.53116729       6.66905723
C       11.05489383       0.72146215       6.68393139
C        4.91342699       7.11377809       6.66478718
C        9.82871613       0.01328001       6.67919884
C        9.82564572       2.85295289       6.69066918
C        3.68250345       9.24169489       6.67200116
C        9.82651779       4.27214208       6.69590996
C        3.68656526       6.40742866       6.66844048
C        8.59957517       4.98221327       6.68859818
C        8.59851958       0.72398173       6.68039393
C        8.59770031       2.14275695       6.68193936
C        2.45291632       8.53316041       6.66725338
C        2.45387853       7.11783648       6.66921394
C        7.37173900       4.27239684       6.68283994
C        1.22384367       9.24265673       6.67537450
C        7.37064119       2.85370534       6.68196129
C        1.22306191       6.41749262       6.71041815
C        7.37121534       0.01378990       6.67779987
C        6.14343708       4.98357599       6.68286278
C        6.14290492       2.14222100       6.68456005
C       -0.00687327       7.11689151       6.69285184
C       -0.00539106       8.53398759       6.67816364
C        6.14255801       0.72318661       6.67988278
C        4.91479600       2.85083713       6.70825496
C        4.91485443       0.01190243       6.67325037
C       -1.23459795       9.24006378       6.67764607
C       -1.23602913       6.40384559       6.70315518
C        3.68826959       0.71876191       6.68531364
C       -2.46229101       8.52950098       6.68388825
C       -2.46391010       7.11093264       6.69285147
C       -3.69271463       9.23782884       6.68433572
C       -3.69401835       6.40152545       6.69058893
C        7.37174667       7.11079318       6.68615708
Pd       3.08078913       5.42098241      11.28660570
Pd       1.64733111       2.26399174       8.91942301
Pd       2.10459279       4.73728711       9.01927014
Pd       2.98837938       2.86481905      10.98298836
O        2.61209779       6.45712213       9.81135104
O        3.65569320       4.12359137      12.69158611
H        2.99639805       3.99729811      13.39937591
157
Lattice="12.29434013 0.0 0.0 -6.14717148 10.64721006 0.0 0.0 0.0 22.0" Properties=species:S:1:pos:R:3 energy_eV=-1429.5711 mag=-1.019 pbc="T T T"
C       -0.00000041       4.25888403       0.00000000
C        2.45886747       4.25888373       0.00000000
C        0.00000002       2.83925549       0.00000000
C        1.22943389       2.12944201       0.00000000
C        2.45886755       2.83925581       0.00000000
C        4.91773566       4.25888387       0.00000000
C        1.22943425       0.70981358       0.00000000
C        3.68830178       2.12944172       0.00000000
C        7.37660369       4.25888378       0.00000000
C        4.91773602       2.83925543       0.00000000
C        2.45886805       0.00000024       0.00000000
C        3.68830174       0.70981398       0.00000000
C        6.14716990       2.12944197       0.00000000
C        7.37660357       2.83925569       0.00000000
C        9.83547172       4.25888369       0.00000000
C       -3.68830294       9.22758163       0.00000000
C       -1.22943541      10.64720976       0.00000000
C        8.60603787       2.12944196       0.00000000
C        6.14717026       0.70981352       0.00000000
C        9.83547184       2.83925568       0.00000000
C        7.37660401       0.00000026       0.00000000
C       -1.22943522       9.22758164       0.00000000
C        8.60603777       0.70981383       0.00000000
C       -2.45886863       8.51776743       0.00000000
C       11.06490602       2.12944167       0.00000000
C       -2.45886846       7.09813930       0.00000000
C        1.22943306       9.22758157       0.00000000
C       -0.00000087       8.51776733       0.00000000
C        3.68830085      10.64720971       0.00000000
C       11.06490621       0.70981356       0.00000000
C       -1.22943518       6.38832686       0.00000000
C        3.68830072       9.22758167       0.00000000
C       -0.00000069       7.09813921       0.00000000
C        6.14716883      10.64720973       0.00000000
C        2.45886743       8.51776727       0.00000000
C       -1.22943453       4.96869791       0.00000000
C        1.22943318       6.38832574       0.00000000
C        6.14716902       9.22758161       0.00000000
C        4.91773528       8.51776748       0.00000000
C        2.45886762       7.09813913       0.00000000
C        1.22943314       4.96869802       0.00000000
C        3.68830149       6.38832568       0.00000000
C        4.91773526       7.09813924       0.00000000
C       -4.91773675       8.51776730       0.00000000
C        3.68830143       4.96869796       0.00000000
C        6.14716958       6.38832549       0.00000000
C        7.37660380       7.09813876       0.00000000
C        6.14716906       4.96869806       0.00000000
C       -3.68830269       6.38832570       0.00000000
C        8.60603809       4.96869676       0.00000000
C       -0.00000041       4.25888403       3.35461664
C       -1.22943436       3.54906979       3.35461664
C        1.22943344       3.54906969       3.35461664
C        2.45886747       4.25888373       3.35461664
C        1.22943389       2.12944201       3.35461664
C        4.91773566       4.25888387       3.35461664
C        3.68830132       3.54906939       3.35461664
C        0.00000032       1.41962715       3.35461664
C        2.45886779       1.41962759       3.35461664
C        3.68830178       2.12944172       3.35461664
C        6.14716963       3.54906975       3.35461664
C        7.37660369       4.25888378       3.35461664
C        2.45886805       0.00000024       3.35461664
C       -4.91773704       9.93739549       3.35461664
C        4.91773554       1.41962751       3.35461664
C        6.14716990       2.12944197       3.35461664
C        8.60603768       3.54906965       3.35461664
C        9.83547172       4.25888369       3.35461664
C       -2.45886952       9.93739584       3.35461664
C       -1.22943541      10.64720976       3.35461664
C        8.60603787       2.12944196       3.35461664
C        7.37660399       1.41962762       3.35461664
C        7.37660401       0.00000026       3.35461664
C       -0.00000181       9.93739584       3.35461664
C       -3.68830270       7.80795340       3.35461664
C       -2.45886863       8.51776743       3.35461664
C        9.83547196       1.41962765       3.35461664
C       11.06490602       2.12944167       3.35461664
C        2.45886667       9.93739589       3.35461664
C       -1.22943492       7.80795330       3.35461664
C       -0.00000087       8.51776733       3.35461664
C        3.68830085      10.64720971       3.35461664
C       -1.22943518       6.38832686       3.35461664
C        1.22943236       7.80795403       3.35461664
C       -2.45886840       5.67851138       3.35461664
C        4.91773467       9.93739590       3.35461664
C        6.14716883      10.64720973       3.35461664
C        2.45886743       8.51776727       3.35461664
C       -0.00000123       5.67851232       3.35461664
C        1.22943318       6.38832574       3.35461664
C        4.91773528       8.51776748       3.35461664
C        3.68830136       7.80795324       3.35461664
C        2.45886667       5.67851202       3.35461664
C        3.68830149       6.38832568       3.35461664
C        6.14716921       7.80795348       3.35461664
C       -4.91773675       8.51776730       3.35461664
C        6.14716958       6.38832549       3.35461664
C        4.91773612       5.67851041       3.35461664
C       -3.68830269       6.38832570       3.35461664
C        7.37660370       5.67851158       3.35461664
C        0.00291255       4.26474301       6.68673424
C        2.45809681       4.26218463       6.69288550
C        0.00388242       2.84527157       6.67980089
C        1.23330960       2.13354044       6.68258543
C        2.46072663       2.84118445       6.69435653
C        4.92805777       4.26511929       6.75487831
C        1.23497625       0.71497860       6.69153863
C        3.68799570       2.13010620       6.73903844
C        7.38740924       4.26768199       6.69403167
C        4.92447474       2.83573223       6.78326132
C        2.46552565       0.00514066       6.70460354
C        3.69322930       0.71391239       6.72693889
C        6.16096327       2.13060776       6.73925904
C        7.38513781       2.84377480       6.70419821
C       -2.45037836       4.26632690       6.69199612
C       -3.67867080       9.23483578       6.69861544
C        4.92548629       0.00596498       6.73614613
C        8.61333539       2.13780972       6.69497285
C        6.15542715       0.71436324       6.73476192
C        9.84249296       2.84704443       6.68993559
C        7.38557571       0.00794309       6.72383796
C       -1.22013449       9.23480615       6.73051813
C        8.61275956       0.71851986       6.70541680
C       -2.44954924       8.52479126       6.71062459
C       -1.22327735       2.13611128       6.68464538
C       -2.44847670       7.10604503       6.70264986
C        1.23761507       9.23711000       6.74559198
C        0.00849870       8.52641078       6.74519407
C        9.84229419       0.00894937       6.69403536
C       11.07222446       0.71719326       6.68390102
C       -1.22203235       6.39582297       6.71215381
C        3.69423977       9.23982940       6.70783639
C        0.00554203       7.10570228       6.74008768
C        0.00735142       0.00713741       6.68495129
C        2.46654938       8.53553713       6.76113003
C       -1.22325085       4.97616928       6.69835270
C        1.22735604       6.39244074       6.75716684
C        6.15804756       9.23617988       6.68047575
C        4.93002820       8.52875463       6.68757490
C        2.46084882       7.10868111       6.82170843
C        1.22952123       4.97587101       6.69927143
C        3.69926550       6.39695614       6.77977269
C        4.93776375       7.11418025       6.70171134
C       -4.90681845       8.52703830       6.68117067
C        3.68495413       4.96789707       6.72825159
C        6.16427192       6.40224402       6.66987528
C        7.39035437       7.10875613       6.67108364
C        6.16699439       4.98309328       6.69902152
C       -3.67642909       6.39587535       6.68444768
C        8.61675805       4.97702917       6.68888914
Pd       2.50149163       4.41797041       9.84427286
Pd       4.39782352       5.20271745      11.34802175
Pd       3.55826241       6.70218277       8.99797971
Pd       4.88980258       4.20089804       8.95016499
O        4.03860732       6.98453637      10.85402440
O        0.81312751       4.56165945      10.77652525
H        0.86345232       5.24247397      11.47639026
157
Lattice="12.29434013 0.0 0.0 -6.14717148 10.64721006 0.0 0.0 0.0 22.0" Properties=species:S:1:pos:R:3 energy_eV=-1429.4669 mag=0.9973 pbc="T T T"
C       -0.00000041       4.25888403       0.00000000
C        2.45886747       4.25888373       0.00000000
C        0.00000002       2.83925549       0.00000000
C        1.22943389       2.12944201       0.00000000
C        2.45886755       2.83925581       0.00000000
C        4.91773566       4.25888387       0.00000000
C        1.22943425       0.70981358       0.00000000
C        3.68830178       2.12944172       0.00000000
C        7.37660369       4.25888378       0.00000000
C        4.91773602       2.83925543       0.00000000
C        2.45886805       0.00000024       0.00000000
C        3.68830174       0.70981398       0.00000000
C        6.14716990       2.12944197       0.00000000
C        7.37660357       2.83925569       0.00000000
C        9.83547172       4.25888369       0.00000000
C       -3.68830294       9.22758163       0.00000000
C       -1.22943541      10.64720976       0.00000000
C        8.60603787       2.12944196       0.00000000
C        6.14717026       0.70981352       0.00000000
C        9.83547184       2.83925568       0.00000000
C        7.37660401       0.00000026       0.00000000
C       -1.22943522       9.22758164       0.00000000
C        8.60603777       0.70981383       0.00000000
C       -2.45886863       8.51776743       0.00000000
C       11.06490602       2.12944167       0.00000000
C       -2.45886846       7.09813930       0.00000000
C        1.22943306       9.22758157       0.00000000
C       -0.00000087       8.51776733       0.00000000
C        3.68830085      10.64720971       0.00000000
C       11.06490621       0.70981356       0.00000000
C       -1.22943518       6.38832686       0.00000000
C        3.68830072       9.22758167       0.00000000
C       -0.00000069       7.09813921       0.00000000
C        6.14716883      10.64720973       0.00000000
C        2.45886743       8.51776727       0.00000000
C       -1.22943453       4.96869791       0.00000000
C        1.22943318       6.38832574       0.00000000
C        6.14716902       9.22758161       0.00000000
C        4.91773528       8.51776748       0.00000000
C        2.45886762       7.09813913       0.00000000
C        1.22943314       4.96869802       0.00000000
C        3.68830149       6.38832568       0.00000000
C        4.91773526       7.09813924       0.00000000
C       -4.91773675       8.51776730       0.00000000
C        3.68830143       4.96869796       0.00000000
C        6.14716958       6.38832549       0.00000000
C        7.37660380       7.09813876       0.00000000
C        6.14716906       4.96869806       0.00000000
C       -3.68830269       6.38832570       0.00000000
C        8.60603809       4.96869676       0.00000000
C       -0.00000041       4.25888403       3.35461664
C       -1.22943436       3.54906979       3.35461664
C        1.22943344       3.54906969       3.35461664
C        2.45886747       4.25888373       3.35461664
C        1.22943389       2.12944201       3.35461664
C        4.91773566       4.25888387       3.35461664
C        3.68830132       3.54906939       3.35461664
C        0.00000032       1.41962715       3.35461664
C        2.45886779       1.41962759       3.35461664
C        3.68830178       2.12944172       3.35461664
C        6.14716963       3.54906975       3.35461664
C        7.37660369       4.25888378       3.35461664
C        2.45886805       0.00000024       3.35461664
C       -4.91773704       9.93739549       3.35461664
C        4.91773554       1.41962751       3.35461664
C        6.14716990       2.12944197       3.35461664
C        8.60603768       3.54906965       3.35461664
C        9.83547172       4.25888369       3.35461664
C       -2.45886952       9.93739584       3.35461664
C       -1.22943541      10.64720976       3.35461664
C        8.60603787       2.12944196       3.35461664
C        7.37660399       1.41962762       3.35461664
C        7.37660401       0.00000026       3.35461664
C       -0.00000181       9.93739584       3.35461664
C       -3.68830270       7.80795340       3.35461664
C       -2.45886863       8.51776743       3.35461664
C        9.83547196       1.41962765       3.35461664
C       11.06490602       2.12944167       3.35461664
C        2.45886667       9.93739589       3.35461664
C       -1.22943492       7.80795330       3.35461664
C       -0.00000087       8.51776733       3.35461664
C        3.68830085      10.64720971       3.35461664
C       -1.22943518       6.38832686       3.35461664
C        1.22943236       7.80795403       3.35461664
C       -2.45886840       5.67851138       3.35461664
C        4.91773467       9.93739590       3.35461664
C        6.14716883      10.64720973       3.35461664
C        2.45886743       8.51776727       3.35461664
C       -0.00000123       5.67851232       3.35461664
C        1.22943318       6.38832574       3.35461664
C        4.91773528       8.51776748       3.35461664
C        3.68830136       7.80795324       3.35461664
C        2.45886667       5.67851202       3.35461664
C        3.68830149       6.38832568       3.35461664
C        6.14716921       7.80795348       3.35461664
C       -4.91773675       8.51776730       3.35461664
C        6.14716958       6.38832549       3.35461664
C        4.91773612       5.67851041       3.35461664
C       -3.68830269       6.38832570       3.35461664
C        7.37660370       5.67851158       3.35461664
C        0.02294984       4.26978352       6.63188244
C        2.47285483       4.26821628       6.84527267
C        0.02227256       2.84473543       6.65411330
C        1.24719061       2.12609422       6.70727436
C        2.48631108       2.83161207       6.79213423
C        4.96075213       4.26413497       6.80666215
C        1.25620035       0.70927216       6.67532821
C        3.72857067       2.12260673       6.73152946
C        7.41108706       4.26805161       6.64235000
C        4.95185920       2.83126094       6.73702840
C        2.48903213       0.00191778       6.66595079
C        3.72127823       0.70953707       6.67770227
C        6.17936515       2.13146933       6.67164323
C        7.40741032       2.84597886       6.64259369
C       -2.42951066       4.26580425       6.59556833
C       -3.65530222       9.23289363       6.63976194
C        4.95149215       0.00251822       6.64843454
C        8.63419098       2.13794375       6.61406529
C        6.17930357       0.71270343       6.64549802
C        9.86251334       2.84785708       6.60334649
C        7.40904474       0.00575587       6.61864726
C       -1.19555796       9.23192394       6.62437687
C        8.63619436       0.71725012       6.61451903
C       -2.42436449       8.52317034       6.62475479
C       -1.20379135       2.13540448       6.62178144
C       -2.42577164       7.10569644       6.61144965
C        1.26256164       9.23524770       6.61337050
C        0.03388297       8.52557648       6.61151142
C        9.86463613       0.00775031       6.61628975
C       11.09382988       0.71577844       6.62855529
C       -1.19756854       6.39667631       6.60362549
C        3.72155511       9.23598217       6.62237459
C        0.03097233       7.10637344       6.61246480
C        0.02840532       0.00343259       6.64437324
C        2.49243979       8.52704546       6.62246844
C       -1.20148267       4.97734621       6.59755808
C        1.25792627       6.39847848       6.64996751
C        6.18065971       9.23367604       6.63041482
C        4.95086359       8.52742867       6.62374257
C        2.49062252       7.11061593       6.65863220
C        1.24282430       4.98559485       6.69183700
C        3.72074954       6.41411286       6.70712545
C        4.95194237       7.11187243       6.64699757
C       -4.88462220       8.52462570       6.62884334
C        3.72292702       4.99144628       6.84275520
C        6.18359471       6.39858014       6.64320211
C        7.41105189       7.10554780       6.62248512
C        6.19090161       4.98288075       6.68733065
C       -3.65458261       6.39648998       6.61458832
C        8.63892406       4.97716992       6.61048202
Pd       4.38547268       4.76607771       8.98349811
Pd       2.15289223       3.54453128       8.90203035
Pd       4.46378377       5.34312773      11.38925611
Pd       2.07514773       5.11739489      10.89044542
O        5.75651388       5.67538001      10.04375068
O        0.42975888       5.33154616      11.86160644
H        0.35124171       4.60714878      12.51320813
157
Lattice="12.29434013 0.0 0.0 -6.14717148 10.64721006 0.0 0.0 0.0 22.0" Properties=species:S:1:pos:R:3 energy_eV=-1429.0322 mag=2.9932 pbc="T T T"
C       -0.00000041       4.25888403       0.00000000
C        2.45886747       4.25888373       0.00000000
C        0.00000002       2.83925549       0.00000000
C        1.22943389       2.12944201       0.00000000
C        2.45886755       2.83925581       0.00000000
C        4.91773566       4.25888387       0.00000000
C        1.22943425       0.70981358       0.00000000
C        3.68830178       2.12944172       0.00000000
C        7.37660369       4.25888378       0.00000000
C        4.91773602       2.83925543       0.00000000
C        2.45886805       0.00000024       0.00000000
C        3.68830174       0.70981398       0.00000000
C        6.14716990       2.12944197       0.00000000
C        7.37660357       2.83925569       0.00000000
C        9.83547172       4.25888369       0.00000000
C       -3.68830294       9.22758163       0.00000000
C       -1.22943541      10.64720976       0.00000000
C        8.60603787       2.12944196       0.00000000
C        6.14717026       0.70981352       0.00000000
C        9.83547184       2.83925568       0.00000000
C        7.37660401       0.00000026       0.00000000
C       -1.22943522       9.22758164       0.00000000
C        8.60603777       0.70981383       0.00000000
C       -2.45886863       8.51776743       0.00000000
C       11.06490602       2.12944167       0.00000000
C       -2.45886846       7.09813930       0.00000000
C        1.22943306       9.22758157       0.00000000
C       -0.00000087       8.51776733       0.00000000
C        3.68830085      10.64720971       0.00000000
C       11.06490621       0.70981356       0.00000000
C       -1.22943518       6.38832686       0.00000000
C        3.68830072       9.22758167       0.00000000
C       -0.00000069       7.09813921       0.00000000
C        6.14716883      10.64720973       0.00000000
C        2.45886743       8.51776727       0.00000000
C       -1.22943453       4.96869791       0.00000000
C        1.22943318       6.38832574       0.00000000
C        6.14716902       9.22758161       0.00000000
C        4.91773528       8.51776748       0.00000000
C        2.45886762       7.09813913       0.00000000
C        1.22943314       4.96869802       0.00000000
C        3.68830149       6.38832568       0.00000000
C        4.91773526       7.09813924       0.00000000
C       -4.91773675       8.51776730       0.00000000
C        3.68830143       4.96869796       0.00000000
C        6.14716958       6.38832549       0.00000000
C        7.37660380       7.09813876       0.00000000
C        6.14716906       4.96869806       0.00000000
C       -3.68830269       6.38832570       0.00000000
C        8.60603809       4.96869676       0.00000000
C       -0.00000041       4.25888403       3.35461664
C       -1.22943436       3.54906979       3.35461664
C        1.22943344       3.54906969       3.35461664
C        2.45886747       4.25888373       3.35461664
C        1.22943389       2.12944201       3.35461664
C        4.91773566       4.25888387       3.35461664
C        3.68830132       3.54906939       3.35461664
C        0.00000032       1.41962715       3.35461664
C        2.45886779       1.41962759       3.35461664
C        3.68830178       2.12944172       3.35461664
C        6.14716963       3.54906975       3.35461664
C        7.37660369       4.25888378       3.35461664
C        2.45886805       0.00000024       3.35461664
C       -4.91773704       9.93739549       3.35461664
C        4.91773554       1.41962751       3.35461664
C        6.14716990       2.12944197       3.35461664
C        8.60603768       3.54906965       3.35461664
C        9.83547172       4.25888369       3.35461664
C       -2.45886952       9.93739584       3.35461664
C       -1.22943541      10.64720976       3.35461664
C        8.60603787       2.12944196       3.35461664
C        7.37660399       1.41962762       3.35461664
C        7.37660401       0.00000026       3.35461664