156
Lattice="12.29434013 0.0 0.0 -6.14717148 10.64721006 0.0 0.0 0.0 22.0" Properties=species:S:1:pos:R:3 energy_eV=-1423.9995 mag=0.9874 pbc="T T T"
C        2.45886762       4.25888403       0.00000000
C        4.91773551       4.25888372       0.00000000
C        2.45886802       2.83925549       0.00000000
C        3.68830192       2.12944201       0.00000000
C        4.91773557       2.83925580       0.00000000
C        7.37660370       4.25888386       0.00000000
C        3.68830226       0.70981359       0.00000000
C        6.14716981       2.12944171       0.00000000
C       -2.45886841       4.25888378       0.00000000
C        7.37660405       2.83925543       0.00000000
C        4.91773609       0.00000023       0.00000000
C        6.14716977       0.70981398       0.00000000
C        8.60603792       2.12944197       0.00000000
C        9.83547159       2.83925570       0.00000000
C       -0.00000037       4.25888371       0.00000000
C       -1.22943490       9.22758164       0.00000000
C        1.22943263      10.64720976       0.00000000
C       -1.22943424       2.12944197       0.00000000
C        8.60603828       0.70981352       0.00000000
C       -0.00000026       2.83925568       0.00000000
C        9.83547204       0.00000025       0.00000000
C        1.22943281       9.22758164       0.00000000
C       11.06490581       0.70981384       0.00000000
C       -0.00000061       8.51776744       0.00000000
C        1.22943393       2.12944169       0.00000000
C       -0.00000044       7.09813931       0.00000000
C        3.68830110       9.22758157       0.00000000
C        2.45886716       8.51776734       0.00000000
C       -6.14717124      10.64720971       0.00000000
C        1.22943409       0.70981357       0.00000000
C        1.22943285       6.38832687       0.00000000
C        6.14716874       9.22758168       0.00000000
C        2.45886734       7.09813920       0.00000000
C       -3.68830325      10.64720974       0.00000000
C        4.91773546       8.51776727       0.00000000
C        1.22943350       4.96869792       0.00000000
C        3.68830121       6.38832574       0.00000000
C       -3.68830308       9.22758161       0.00000000
C       -4.91773682       8.51776749       0.00000000
C        4.91773563       7.09813914       0.00000000
C        3.68830115       4.96869802       0.00000000
C        6.14716952       6.38832567       0.00000000
C        7.37660328       7.09813925       0.00000000
C       -2.45886870       8.51776731       0.00000000
C        6.14716945       4.96869795       0.00000000
C       -3.68830253       6.38832548       0.00000000
C       -2.45886830       7.09813877       0.00000000
C        8.60603710       4.96869807       0.00000000
C       -1.22943466       6.38832572       0.00000000
C       -1.22943402       4.96869677       0.00000000
C        2.45886762       4.25888403       3.35461664
C        1.22943368       3.54906979       3.35461664
C        3.68830145       3.54906968       3.35461664
C        4.91773551       4.25888372       3.35461664
C        3.68830192       2.12944201       3.35461664
C        7.37660370       4.25888386       3.35461664
C        6.14716934       3.54906938       3.35461664
C        2.45886833       1.41962716       3.35461664
C        4.91773581       1.41962758       3.35461664
C        6.14716981       2.12944171       3.35461664
C        8.60603767       3.54906975       3.35461664
C       -2.45886841       4.25888378       3.35461664
C        4.91773609       0.00000023       3.35461664
C       -2.45886901       9.93739549       3.35461664
C        7.37660357       1.41962751       3.35461664
C        8.60603792       2.12944197       3.35461664
C       -1.22943442       3.54906965       3.35461664
C       -0.00000037       4.25888371       3.35461664
C       -0.00000148       9.93739584       3.35461664
C        1.22943263      10.64720976       3.35461664
C       -1.22943424       2.12944197       3.35461664
C        9.83547202       1.41962764       3.35461664
C        9.83547204       0.00000025       3.35461664
C        2.45886622       9.93739584       3.35461664
C       -1.22943466       7.80795341       3.35461664
C       -0.00000061       8.51776744       3.35461664
C       -0.00000014       1.41962766       3.35461664
C        1.22943393       2.12944169       3.35461664
C        4.91773472       9.93739590       3.35461664
C        1.22943311       7.80795330       3.35461664
C        2.45886716       8.51776734       3.35461664
C       -6.14717124      10.64720971       3.35461664
C        1.22943285       6.38832687       3.35461664
C        3.68830040       7.80795403       3.35461664
C       -0.00000038       5.67851139       3.35461664
C       -4.91773744       9.93739591       3.35461664
C       -3.68830325      10.64720974       3.35461664
C        4.91773546       8.51776727       3.35461664
C        2.45886680       5.67851232       3.35461664
C        3.68830121       6.38832574       3.35461664
C       -4.91773682       8.51776749       3.35461664
C        6.14716937       7.80795325       3.35461664
C        4.91773469       5.67851202       3.35461664
C        6.14716952       6.38832567       3.35461664
C       -3.68830290       7.80795349       3.35461664
C       -2.45886870       8.51776731       3.35461664
C       -3.68830253       6.38832548       3.35461664
C        7.37660414       5.67851042       3.35461664
C       -1.22943466       6.38832572       3.35461664
C       -2.45886840       5.67851159       3.35461664
C        2.48019013       4.21601044       6.84560043
C        4.94947721       4.22817023       6.66333055
C        2.47604572       2.78973370       6.74026075
C        3.71767311       2.08941133       6.68450172
C        4.94247977       2.80933459       6.65240845
C        7.39554380       4.23293423       6.62825596
C        3.70631361       0.67624037       6.66668125
C        6.16764035       2.10195438       6.64484963
C        9.84580712       4.23179086       6.63824981
C        7.39463668       2.81207675       6.63962643
C       -1.21119257      10.61949780       6.66578544
C        6.16347886       0.68199657       6.66401427
C        8.61959468       2.10128637       6.65123510
C        9.84671570       2.81142360       6.64654817
C       -0.00473417       4.22436239       6.71104142
C       -1.21595033       9.20274703       6.67368924
C        1.24542293      10.62221156       6.67703829
C       11.07403063       2.10127823       6.65579961
C        8.62001839       0.68439989       6.66996501
C        0.00473716       2.80920109       6.67952210
C        3.70262389      10.62150426       6.67624452
C        1.24292466       9.20618130       6.69767550
C       11.07879358       0.68134208       6.66708636
C        0.01262644       8.49820853       6.69672258
C        1.23356620       2.09050229       6.70341628
C        0.00176252       7.08271194       6.72718573
C        3.70489701       9.20610014       6.69494950
C        2.47300409       8.49957622       6.71326373
C        6.15994289      10.61939006       6.67193870
C        1.24268301       0.67713212       6.67466249
C        1.23849029       6.37847664       6.82233218
C        6.16513862       9.20278575       6.67893839
C        2.47394172       7.09187613       6.76891165
C       -3.67337301      10.61791583       6.66741626
C        4.93642581       8.49810003       6.69774162
C        1.22857489       4.94142210       6.85519205
C        3.70989104       6.37571462       6.78476739
C       -3.67291143       9.20226066       6.66795718
C       -4.90049721       8.49331393       6.67166957
C        4.94719199       7.08114540       6.71422700
C        3.72175779       4.94071349       6.78837839
C        6.17079063       6.36538035       6.66655589
C        7.39587025       7.07341465       6.66014650
C       -2.44417590       8.49414425       6.66770477
C        6.17094487       4.94121859       6.63697117
C       -3.67291626       6.36229134       6.64619170
C       -2.44569511       7.07347359       6.65838454
C        8.62080493       4.94412480       6.63507415
C       -1.22145801       6.36698856       6.67432260
C       -1.22273813       4.93945544       6.66235851
Pd       2.76404626       4.65082926      11.16981552
Pd       3.69767284       5.69176237       8.94739567
Pd       1.04991733       5.58403208       8.93618901
Pd       2.49151024       3.26181678       8.86249859
O        1.01597855       5.71672421      11.01831255
H        1.27206515       6.63407944      11.23941969
156
Lattice="12.29434013 0.0 0.0 -6.14717148 10.64721006 0.0 0.0 0.0 22.0" Properties=species:S:1:pos:R:3 energy_eV=-1423.7519 mag=0.9989 pbc="T T T"
C        2.45886762       4.25888403       0.00000000
C        4.91773551       4.25888372       0.00000000
C        2.45886802       2.83925549       0.00000000
C        3.68830192       2.12944201       0.00000000
C        4.91773557       2.83925580       0.00000000
C        7.37660370       4.25888386       0.00000000
C        3.68830226       0.70981359       0.00000000
C        6.14716981       2.12944171       0.00000000
C       -2.45886841       4.25888378       0.00000000
C        7.37660405       2.83925543       0.00000000
C        4.91773609       0.00000023       0.00000000
C        6.14716977       0.70981398       0.00000000
C        8.60603792       2.12944197       0.00000000
C        9.83547159       2.83925570       0.00000000
C       -0.00000037       4.25888371       0.00000000
C       -1.22943490       9.22758164       0.00000000
C        1.22943263      10.64720976       0.00000000
C       -1.22943424       2.12944197       0.00000000
C        8.60603828       0.70981352       0.00000000
C       -0.00000026       2.83925568       0.00000000
C        9.83547204       0.00000025       0.00000000
C        1.22943281       9.22758164       0.00000000
C       11.06490581       0.70981384       0.00000000
C       -0.00000061       8.51776744       0.00000000
C        1.22943393       2.12944169       0.00000000
C       -0.00000044       7.09813931       0.00000000
C        3.68830110       9.22758157       0.00000000
C        2.45886716       8.51776734       0.00000000
C       -6.14717124      10.64720971       0.00000000
C        1.22943409       0.70981357       0.00000000
C        1.22943285       6.38832687       0.00000000
C        6.14716874       9.22758168       0.00000000
C        2.45886734       7.09813920       0.00000000
C       -3.68830325      10.64720974       0.00000000
C        4.91773546       8.51776727       0.00000000
C        1.22943350       4.96869792       0.00000000
C        3.68830121       6.38832574       0.00000000
C       -3.68830308       9.22758161       0.00000000
C       -4.91773682       8.51776749       0.00000000
C        4.91773563       7.09813914       0.00000000
C        3.68830115       4.96869802       0.00000000
C        6.14716952       6.38832567       0.00000000
C        7.37660328       7.09813925       0.00000000
C       -2.45886870       8.51776731       0.00000000
C        6.14716945       4.96869795       0.00000000
C       -3.68830253       6.38832548       0.00000000
C       -2.45886830       7.09813877       0.00000000
C        8.60603710       4.96869807       0.00000000
C       -1.22943466       6.38832572       0.00000000
C       -1.22943402       4.96869677       0.00000000
C        2.45886762       4.25888403       3.35461664
C        1.22943368       3.54906979       3.35461664
C        3.68830145       3.54906968       3.35461664
C        4.91773551       4.25888372       3.35461664
C        3.68830192       2.12944201       3.35461664
C        7.37660370       4.25888386       3.35461664
C        6.14716934       3.54906938       3.35461664
C        2.45886833       1.41962716       3.35461664
C        4.91773581       1.41962758       3.35461664
C        6.14716981       2.12944171       3.35461664
C        8.60603767       3.54906975       3.35461664
C       -2.45886841       4.25888378       3.35461664
C        4.91773609       0.00000023       3.35461664
C       -2.45886901       9.93739549       3.35461664
C        7.37660357       1.41962751       3.35461664
C        8.60603792       2.12944197       3.35461664
C       -1.22943442       3.54906965       3.35461664
C       -0.00000037       4.25888371       3.35461664
C       -0.00000148       9.93739584       3.35461664
C        1.22943263      10.64720976       3.35461664
C       -1.22943424       2.12944197       3.35461664
C        9.83547202       1.41962764       3.35461664
C        9.83547204       0.00000025       3.35461664
C        2.45886622       9.93739584       3.35461664
C       -1.22943466       7.80795341       3.35461664
C       -0.00000061       8.51776744       3.35461664
C       -0.00000014       1.41962766       3.35461664
C        1.22943393       2.12944169       3.35461664
C        4.91773472       9.93739590       3.35461664
C        1.22943311       7.80795330       3.35461664
C        2.45886716       8.51776734       3.35461664
C       -6.14717124      10.64720971       3.35461664
C        1.22943285       6.38832687       3.35461664
C        3.68830040       7.80795403       3.35461664
C       -0.00000038       5.67851139       3.35461664
C       -4.91773744       9.93739591       3.35461664
C       -3.68830325      10.64720974       3.35461664
C        4.91773546       8.51776727       3.35461664
C        2.45886680       5.67851232       3.35461664
C        3.68830121       6.38832574       3.35461664
C       -4.91773682       8.51776749       3.35461664
C        6.14716937       7.80795325       3.35461664
C        4.91773469       5.67851202       3.35461664
C        6.14716952       6.38832567       3.35461664
C       -3.68830290       7.80795349       3.35461664
C       -2.45886870       8.51776731       3.35461664
C       -3.68830253       6.38832548       3.35461664
C        7.37660414       5.67851042       3.35461664
C       -1.22943466       6.38832572       3.35461664
C       -2.45886840       5.67851159       3.35461664
C        2.42320692       4.24576045       6.67076270
C        4.87927937       4.23893162       6.76355092
C        2.42763072       2.82561830       6.67663862
C        3.65548965       2.11315790       6.68969358
C        4.88733918       2.81498822       6.71265597
C        7.35846636       4.24161980       6.73317508
C        3.65759791       0.69554333       6.68594999
C        6.11943667       2.11174492       6.68849017
C        9.80907629       4.24729864       6.69359549
C        7.35233107       2.82353509       6.69379339
C       -1.26122417      10.63453539       6.68275080
C        6.11720789       0.69757771       6.67608874
C        8.57815865       2.11845016       6.67915296
C        9.80862132       2.82973102       6.68653947
C       -0.03008628       4.24916290       6.67351457
C       -1.26105106       9.21632811       6.68384774
C        1.20017477      10.63760086       6.66648779
C       11.03690526       2.12028938       6.68158570
C        8.57603505       0.69982922       6.66735069
C       -0.02928594       2.82973638       6.67751406
C        3.65871775      10.63940261       6.67124122
C        1.19768390       9.21873211       6.66961042
C       11.03721620       0.70214376       6.68177462
C       -0.03296307       8.50711796       6.67809131
C        1.19985238       2.11903784       6.67620520
C       -0.03409284       7.08916378       6.67961004
C        3.65619147       9.22558681       6.67996090
C        2.42353066       8.51360350       6.67577949
C        6.11806757      10.64099217       6.68893764
C        1.20095749       0.69979814       6.68425416
C        1.19237078       6.37849530       6.67945449
C        6.11938371       9.22307567       6.70590682
C        2.41588973       7.09472202       6.69909265
C       -3.71968357      10.63632983       6.68612262
C        4.88776997       8.52194416       6.71836528
C        1.19516381       4.95944667       6.67010033
C        3.64570496       6.37643222       6.75039638
C       -3.71886053       9.21703638       6.69310254
C        7.34733034       8.51083194       6.70477849
C        4.89221339       7.09785714       6.77283259
C        3.64397723       4.95055389       6.70610917
C        6.12939454       6.38588940       6.75166822
C        7.35083683       7.09062208       6.71752407
C       -2.48984593       8.50674961       6.69025193
C        6.12721718       4.95858454       6.78800460
C        8.57894043       6.37701564       6.70820342
C       -2.48952366       7.08724627       6.69389840
C        8.58155579       4.95746364       6.71363692
C       -1.26072152       6.37689769       6.68483484
C       -1.25884022       4.95950893       6.68397563
Pd       4.18001774       6.75308175       8.92089481
Pd       3.80722264       5.07709353      10.87863473
Pd       5.96023064       6.32402934      10.81334000
Pd       5.47042323       4.54144377       8.93893329
O        2.19283917       4.02243444      10.91273491
H        2.09598845       3.46329301      10.11802482
156
Lattice="12.29434013 0.0 0.0 -6.14717148 10.64721006 0.0 0.0 0.0 22.0" Properties=species:S:1:pos:R:3 energy_eV=-1423.7478 mag=0.9931 pbc="T T T"
C        2.45886762       4.25888403       0.00000000
C        4.91773551       4.25888372       0.00000000
C        2.45886802       2.83925549       0.00000000
C        3.68830192       2.12944201       0.00000000
C        4.91773557       2.83925580       0.00000000
C        7.37660370       4.25888386       0.00000000
C        3.68830226       0.70981359       0.00000000
C        6.14716981       2.12944171       0.00000000
C       -2.45886841       4.25888378       0.00000000
C        7.37660405       2.83925543       0.00000000
C        4.91773609       0.00000023       0.00000000
C        6.14716977       0.70981398       0.00000000
C        8.60603792       2.12944197       0.00000000
C        9.83547159       2.83925570       0.00000000
C       -0.00000037       4.25888371       0.00000000
C       -1.22943490       9.22758164       0.00000000
C        1.22943263      10.64720976       0.00000000
C       -1.22943424       2.12944197       0.00000000
C        8.60603828       0.70981352       0.00000000
C       -0.00000026       2.83925568       0.00000000
C        9.83547204       0.00000025       0.00000000
C        1.22943281       9.22758164       0.00000000
C       11.06490581       0.70981384       0.00000000
C       -0.00000061       8.51776744       0.00000000
C        1.22943393       2.12944169       0.00000000
C       -0.00000044       7.09813931       0.00000000
C        3.68830110       9.22758157       0.00000000
C        2.45886716       8.51776734       0.00000000
C       -6.14717124      10.64720971       0.00000000
C        1.22943409       0.70981357       0.00000000
C        1.22943285       6.38832687       0.00000000
C        6.14716874       9.22758168       0.00000000
C        2.45886734       7.09813920       0.00000000
C       -3.68830325      10.64720974       0.00000000
C        4.91773546       8.51776727       0.00000000
C        1.22943350       4.96869792       0.00000000
C        3.68830121       6.38832574       0.00000000
C       -3.68830308       9.22758161       0.00000000
C       -4.91773682       8.51776749       0.00000000
C        4.91773563       7.09813914       0.00000000
C        3.68830115       4.96869802       0.00000000
C        6.14716952       6.38832567       0.00000000
C        7.37660328       7.09813925       0.00000000
C       -2.45886870       8.51776731       0.00000000
C        6.14716945       4.96869795       0.00000000
C       -3.68830253       6.38832548       0.00000000
C       -2.45886830       7.09813877       0.00000000
C        8.60603710       4.96869807       0.00000000
C       -1.22943466       6.38832572       0.00000000
C       -1.22943402       4.96869677       0.00000000
C        2.45886762       4.25888403       3.35461664
C        1.22943368       3.54906979       3.35461664
C        3.68830145       3.54906968       3.35461664
C        4.91773551       4.25888372       3.35461664
C        3.68830192       2.12944201       3.35461664
C        7.37660370       4.25888386       3.35461664
C        6.14716934       3.54906938       3.35461664
C        2.45886833       1.41962716       3.35461664
C        4.91773581       1.41962758       3.35461664
C        6.14716981       2.12944171       3.35461664
C        8.60603767       3.54906975       3.35461664
C       -2.45886841       4.25888378       3.35461664
C        4.91773609       0.00000023       3.35461664
C       -2.45886901       9.93739549       3.35461664
C        7.37660357       1.41962751       3.35461664
C        8.60603792       2.12944197       3.35461664
C       -1.22943442       3.54906965       3.35461664
C       -0.00000037       4.25888371       3.35461664
C       -0.00000148       9.93739584       3.35461664
C        1.22943263      10.64720976       3.35461664
C       -1.22943424       2.12944197       3.35461664
C        9.83547202       1.41962764       3.35461664
C        9.83547204       0.00000025       3.35461664
C        2.45886622       9.93739584       3.35461664
C       -1.22943466       7.80795341       3.35461664
C       -0.00000061       8.51776744       3.35461664
C       -0.00000014       1.41962766       3.35461664
C        1.22943393       2.12944169       3.35461664
C        4.91773472       9.93739590       3.35461664
C        1.22943311       7.80795330       3.35461664
C        2.45886716       8.51776734       3.35461664
C       -6.14717124      10.64720971       3.35461664
C        1.22943285       6.38832687       3.35461664
C        3.68830040       7.80795403       3.35461664
C       -0.00000038       5.67851139       3.35461664
C       -4.91773744       9.93739591       3.35461664
C       -3.68830325      10.64720974       3.35461664
C        4.91773546       8.51776727       3.35461664
C        2.45886680       5.67851232       3.35461664
C        3.68830121       6.38832574       3.35461664
C       -4.91773682       8.51776749       3.35461664
C        6.14716937       7.80795325       3.35461664
C        4.91773469       5.67851202       3.35461664
C        6.14716952       6.38832567       3.35461664
C       -3.68830290       7.80795349       3.35461664
C       -2.45886870       8.51776731       3.35461664
C       -3.68830253       6.38832548       3.35461664
C        7.37660414       5.67851042       3.35461664
C       -1.22943466       6.38832572       3.35461664
C       -2.45886840       5.67851159       3.35461664
C        2.45325112       4.25991666       6.93347065
C        4.92919408       4.27077003       6.68920078
C        2.44707058       2.83250904       6.79557057
C        3.68966945       2.13453944       6.72566969
C        4.91870215       2.85517290       6.66903764
C        7.37197934       4.27608111       6.56395347
C        3.68079194       0.71893704       6.66336463
C        6.14264763       2.14563530       6.60530459
C        9.82386794       4.27512316       6.59938527
C        7.36954759       2.85560430       6.57435279
C        4.91011040       0.01502317       6.63206274
C        6.13836768       0.72556749       6.61010373
C        8.59651918       2.14493931       6.57122369
C        9.82408700       2.85542523       6.59262452
C       -0.02604281       4.26916344       6.74733934
C       -1.24126948       9.24543282       6.63285795
C        7.36633317       0.01823535       6.59673816
C       11.05083884       2.14527698       6.62008845
C        8.59557969       0.72849444       6.58012324
C       -0.01895357       2.85328974       6.69327087
C        9.82514068       0.01842513       6.58504801
C        1.21717175       9.24941027       6.63048038
C       11.05408940       0.72595800       6.59994603
C       -0.01215135       8.54071193       6.65541528
C        1.20720039       2.13350925       6.71627883
C       -0.02089154       7.12388551       6.71202400
C        3.68061931       9.24995799       6.60747452
C        2.44895919       8.54362851       6.64293109
C       12.28246896       0.01642719       6.60898020
C        1.21725049       0.72146660       6.64844828
C        1.21551334       6.42353157       6.81120624
C        6.14081454       9.24725244       6.59460908
C        2.44857002       7.13640902       6.73187734
C        2.44954380       0.01399533       6.64113036
C        4.91209271       8.54292648       6.61165264
C        1.20368107       4.98635096       6.90348975
C        3.68725832       6.42722691       6.77702972
C       -3.69701943       9.24419193       6.61185098
C       -4.92517302       8.53728612       6.59145418
C        4.92345599       7.12709901       6.65547543
C        3.70336463       4.99007614       6.86817656
C        6.14731772       6.40956896       6.60117206
C        7.37095046       7.11747641       6.57796902
C       -2.46909966       8.53603409       6.62103196
C        6.14739915       4.98539618       6.59968619
C       -3.69564181       6.40595818       6.58010227
C       -2.46911295       7.11653095       6.61563660
C        8.59859972       4.98759335       6.56940148
C       -1.24488800       6.40803180       6.66543954
C       -1.24494849       4.98386454       6.66390088
Pd       1.22453729       5.71388231       9.02224162
Pd       3.86537998       5.77813687       8.93074537
Pd       2.65764654       3.28730161       8.93323580
Pd       2.59732798       4.85821008      10.97443182
O        3.01734856       4.91845626      12.83735611
H        3.59925196       5.68659992      13.00774281
156
Lattice="12.29434013 0.0 0.0 -6.14717148 10.64721006 0.0 0.0 0.0 22.0" Properties=species:S:1:pos:R:3 energy_eV=-1423.7355 mag=0.9995 pbc="T T T"
C        6.14716986       2.12944214       0.00000000
C        7.37660326       4.25888418       0.00000000
C        4.91773541       2.83925659       0.00000000
C        4.91773557       4.25888415       0.00000000
C        6.14716917       4.96869803       0.00000000
C       -3.68830294       6.38832627       0.00000000
C        3.68830118       4.96869851       0.00000000
C        6.14716897       6.38832620       0.00000000
C       -2.45886928       8.51776833       0.00000000
C        7.37660279       7.09814063       0.00000000
C        3.68830141       6.38832594       0.00000000
C        4.91773498       7.09813987       0.00000000
C       -4.91773716       8.51776817       0.00000000
C       -3.68830360       9.22758209       0.00000000
C        4.91773585       0.00000033       0.00000000
C        2.45886688       7.09814053       0.00000000
C        4.91773468       8.51776822       0.00000000
C        2.45886802       0.00000007       0.00000000
C        6.14716856       9.22758254       0.00000000
C        3.68830171       0.70981427       0.00000000
C       -6.14717129      10.64720988       0.00000000
C        3.68830047       9.22758227       0.00000000
C        1.22943366       0.70981390       0.00000000
C        2.45886662       8.51776881       0.00000000
C        3.68830157       2.12944234       0.00000000
C        1.22943240       9.22758284       0.00000000
C       11.06490574       0.70981449       0.00000000
C        9.83547161       0.00000058       0.00000000
C        1.22943355       2.12944239       0.00000000
C        2.45886736       2.83925639       0.00000000
C        1.22943315      10.64720936       0.00000000
C       -0.00000075       2.83925612       0.00000000
C        8.60603739       0.70981464       0.00000000
C        2.45886728       4.25888435       0.00000000
C       -1.22943470       2.12944286       0.00000000
C        6.14716994       0.70981418       0.00000000
C        8.60603756       2.12944217       0.00000000
C        1.22943306       4.96869841       0.00000000
C       -0.00000087       4.25888462       0.00000000
C        9.83547120       2.83925691       0.00000000
C        7.37660359       2.83925581       0.00000000
C       -2.45886876       4.25888446       0.00000000
C       -1.22943529       4.96869854       0.00000000
C        1.22943273       6.38832678       0.00000000
C        8.60603739       4.96869809       0.00000000
C       -1.22943516       6.38832662       0.00000000
C       -0.00000172       7.09814125       0.00000000
C       -2.45886909       7.09813974       0.00000000
C       -0.00000132       8.51776838       0.00000000
C       -1.22943600       9.22758325       0.00000000
C        6.14716986       2.12944214       3.35461664
C        4.91773573       1.41962823       3.35461664
C        6.14716926       3.54907007       3.35461664
C        7.37660326       4.25888418       3.35461664
C        4.91773557       4.25888415       3.35461664
C       -3.68830294       6.38832627       3.35461664
C        7.37660265       5.67851212       3.35461664
C        3.68830108       3.54907086       3.35461664
C        4.91773491       5.67851218       3.35461664
C        6.14716897       6.38832620       3.35461664
C       -3.68830328       7.80795422       3.35461664
C       -2.45886928       8.51776833       3.35461664
C        3.68830141       6.38832594       3.35461664
C        2.45886695       5.67851259       3.35461664
C        6.14716843       7.80795401       3.35461664
C       -4.91773716       8.51776817       3.35461664
C       -2.45886963       9.93739629       3.35461664
C        4.91773585       0.00000033       3.35461664
C        3.68830073       7.80795400       3.35461664
C        4.91773468       8.51776822       3.35461664
C        2.45886802       0.00000007       3.35461664
C       -4.91773764       9.93739633       3.35461664
C       -6.14717129      10.64720988       3.35461664
C        4.91773430       9.93739573       3.35461664
C        1.22943260       7.80795468       3.35461664
C        2.45886662       8.51776881       3.35461664