155
Lattice="12.29434013 0.0 0.0 -6.14717148 10.64721006 0.0 0.0 0.0 22.0" Properties=species:S:1:pos:R:3 energy_eV=-1419.4629 mag=1.9338 pbc="T T T"
C        3.68830054      10.64720991       0.00000000
C        2.45886661       8.51776818       0.00000000
C        8.60603735       0.70981394       0.00000000
C        1.22943252      10.64720991       0.00000000
C        1.22943266       9.22758225       0.00000000
C        1.22943292       6.38832597       0.00000000
C        6.14716944       0.70981394       0.00000000
C       -0.00000141       8.51776818       0.00000000
C       -0.00000088       4.25888400       0.00000000
C       -0.00000162       7.09814005       0.00000000
C       -1.22943523      10.64720991       0.00000000
C       -1.22943516       9.22758225       0.00000000
C       -1.22943496       6.38832597       0.00000000
C       -1.22943488       4.96869830       0.00000000
C       11.06490545       2.12944202       0.00000000
C        3.68830141       0.70981394       0.00000000
C       -2.45886943       8.51776819       0.00000000
C        9.83547147       4.25888400       0.00000000
C       -2.45886954       7.09814005       0.00000000
C        9.83547138       2.83925608       0.00000000
C       -3.68830263       6.38832597       0.00000000
C       -3.68830363       9.22758226       0.00000000
C        8.60603739       4.96869830       0.00000000
C       -3.68830424      10.64720992       0.00000000
C        8.60603742       2.12944201       0.00000000
C        1.22943304       0.70981394       0.00000000
C        7.37660258       7.09814005       0.00000000
C        7.37660220       8.51776819       0.00000000
C        7.37660309       4.25888399       0.00000000
C        7.37660323       2.83925608       0.00000000
C       -6.14717060      10.64720992       0.00000000
C        6.14716913       4.96869830       0.00000000
C        6.14716800       9.22758224       0.00000000
C        6.14716941       2.12944201       0.00000000
C        6.14716828       6.38832596       0.00000000
C       11.06490585       0.70981393       0.00000000
C        4.91773464       8.51776818       0.00000000
C        4.91773520       2.83925608       0.00000000
C        4.91773482       4.25888399       0.00000000
C        4.91773408       7.09814004       0.00000000
C        3.68830092       9.22758225       0.00000000
C        3.68830073       6.38832596       0.00000000
C        3.68830063       4.96869829       0.00000000
C        3.68830090       2.12944201       0.00000000
C        2.45886700       7.09814004       0.00000000
C        2.45886680       4.25888399       0.00000000
C        2.45886623       2.83925608       0.00000000
C        1.22943355       4.96869830       0.00000000
C        1.22943335       2.12944201       0.00000000
C       -0.00000180       2.83925608       0.00000000
C        3.68830054      10.64720991       3.35461664
C        9.83547165       1.41962801       3.35461664
C        2.45886648       9.93739632       3.35461664
C        2.45886661       8.51776818       3.35461664
C        1.22943252      10.64720991       3.35461664
C        1.22943292       6.38832597       3.35461664
C        1.22943256       7.80795459       3.35461664
C        7.37660290       1.41962801       3.35461664
C       -0.00000166       9.93739632       3.35461664
C       -0.00000141       8.51776818       3.35461664
C       -0.00000101       5.67851213       3.35461664
C       -0.00000088       4.25888400       3.35461664
C       -1.22943523      10.64720991       3.35461664
C        4.91773520       1.41962801       3.35461664
C       -1.22943533       7.80795459       3.35461664
C       -1.22943496       6.38832597       3.35461664
C       -1.22943483       3.54907016       3.35461664
C       11.06490545       2.12944202       3.35461664
C       -2.45886945       9.93739632       3.35461664
C       -2.45886943       8.51776819       3.35461664
C        9.83547147       4.25888400       3.35461664
C       -2.45886916       5.67851214       3.35461664
C       -3.68830263       6.38832597       3.35461664
C       -3.68830302       7.80795459       3.35461664
C        2.45886710       1.41962800       3.35461664
C       -3.68830424      10.64720992       3.35461664
C        8.60603729       3.54907015       3.35461664
C        8.60603742       2.12944201       3.35461664
C        7.37660319       5.67851213       3.35461664
C       -4.91773807       9.93739632       3.35461664
C        7.37660220       8.51776819       3.35461664
C        7.37660309       4.25888399       3.35461664
C       -6.14717060      10.64720992       3.35461664
C        6.14716934       7.80795458       3.35461664
C       -0.00000094       1.41962801       3.35461664
C        6.14716950       3.54907015       3.35461664
C        6.14716941       2.12944201       3.35461664
C        6.14716828       6.38832596       3.35461664
C        4.91773522       9.93739632       3.35461664
C        4.91773464       8.51776818       3.35461664
C        4.91773482       4.25888399       3.35461664
C        4.91773445       5.67851212       3.35461664
C        3.68830130       7.80795458       3.35461664
C        3.68830073       6.38832596       3.35461664
C        3.68830101       3.54907015       3.35461664
C        3.68830090       2.12944201       3.35461664
C        2.45886680       4.25888399       3.35461664
C        2.45886547       5.67851213       3.35461664
C        1.22943335       2.12944201       3.35461664
C        1.22943297       3.54906992       3.35461664
C        3.69631765      10.64382026       6.68576521
C        2.46344943       8.52345569       6.70049138
C        8.61487285       0.70527579       6.67548803
C        1.23645991      10.64250424       6.67144746
C        1.23411610       9.22805987       6.67743224
C        1.22591344       6.38218471       6.77288251
C        6.15490942       0.70211626       6.67210369
C        0.00201829       8.51793713       6.70016611
C        0.00268279       4.24765689       6.69305278
C       -0.00603692       7.09884783       6.73242592
C       -1.22110353      10.64009627       6.67875330
C       -1.22485929       9.22230192       6.69435055
C       -1.22895702       6.38094669       6.70849264
C       -1.22546231       4.96197643       6.69204713
C       -1.22095926       2.12138305       6.68199661
C        3.69693355       0.69955107       6.68073637
C       -2.45315678       8.51043569       6.70608605
C       -2.45034067       4.25175435       6.68788280
C       -2.45342791       7.09207843       6.70679026
C        9.84460457       2.83166084       6.68197643
C       -3.67799763       6.37981601       6.70882377
C       -3.68133473       9.21929922       6.70817498
C        8.61656754       4.96185794       6.69842803
C       -3.68125554      10.63815489       6.69452366
C        8.61643993       2.12272959       6.67749561
C        1.23723152       0.69899117       6.69204199
C        7.38983726       7.09099919       6.73159124
C       -4.90843665       8.51121158       6.72582980
C        7.38956831       4.24944840       6.69081221
C        7.38819425       2.83145196       6.67708404
C       -6.13932799      10.64171420       6.69990530
C        6.16350684       4.95766309       6.71501498
C        6.15804203       9.22509344       6.73003566
C        6.15766688       2.12042710       6.66817268
C        6.17051623       6.37697152       6.76482410
C       11.07427475       0.70339346       6.68997894
C        4.92851420       8.52613640       6.76616610
C        4.93201736       2.82594729       6.67218450
C        4.93804296       4.24330543       6.70903517
C        4.93977952       7.09921767       6.82898026
C        3.69571728       9.22844040       6.71134347
C        3.70402389       6.38915999       6.85669705
C        3.70773979       4.94961782       6.80928727
C        3.70043040       2.11327149       6.68260283
C        2.46063862       7.10785066       6.78747351
C        2.46093044       4.23912443       6.77318732
C        2.46716822       2.81485267       6.71448197
C        1.22232610       4.95232593       6.73716458
C        1.23421764       2.11554444       6.69306774
C        0.00686534       2.82786585       6.68610125
Pd       2.98780282       4.39242427       8.94143273
Pd       1.54470251       6.55846742       8.98167204
Pd       4.31211316       6.85322235       8.99081097
Pd       2.85423922       5.83994029      11.15780542
O        4.31384975       6.99917429      10.92719333
155
Lattice="12.29434013 0.0 0.0 -6.14717148 10.64721006 0.0 0.0 0.0 22.0" Properties=species:S:1:pos:R:3 energy_eV=-1419.4166 mag=1.9887 pbc="T T T"
C        2.45886698       8.51776817       0.00000000
C        9.83547186       0.00000016       0.00000000
C        1.22943253       9.22758264       0.00000000
C        7.37660416       0.00000013       0.00000000
C        8.60603776       0.70981401       0.00000000
C       -1.22943434       2.12944225       0.00000000
C        6.14716978       0.70981449       0.00000000
C        8.60603756       2.12944218       0.00000000
C       -0.00000069       4.25888430       0.00000000
C        9.83547138       2.83925661       0.00000000
C        6.14717000       2.12944192       0.00000000
C        7.37660356       2.83925585       0.00000000
C       -2.45886859       4.25888414       0.00000000
C       -1.22943502       4.96869807       0.00000000
C        1.22943298       6.38832636       0.00000000
C        4.91773547       2.83925652       0.00000000
C        7.37660325       4.25888419       0.00000000
C       -1.22943487       6.38832611       0.00000000
C        8.60603714       4.96869852       0.00000000
C       -0.00000118       7.09814031       0.00000000
C       -3.68830270       6.38832586       0.00000000
C        6.14716905       4.96869825       0.00000000
C       -2.45886923       7.09813994       0.00000000
C        4.91773521       4.25888478       0.00000000
C       -0.00000133       8.51776838       0.00000000
C        3.68830100       4.96869883       0.00000000
C        7.37660285       7.09814053       0.00000000
C        6.14716873       6.38832661       0.00000000
C       -2.45886934       8.51776843       0.00000000
C       -1.22943553       9.22758243       0.00000000
C        3.68830175       6.38832535       0.00000000
C       -3.68830365       9.22758216       0.00000000
C        4.91773452       7.09814068       0.00000000
C        4.91773586       0.00000033       0.00000000
C       -4.91773759       8.51776890       0.00000000
C        2.45886707       7.09814022       0.00000000
C        4.91773467       8.51776822       0.00000000
C        3.68830165       0.70981439       0.00000000
C        2.45886773       0.00000060       0.00000000
C        6.14716832       9.22758296       0.00000000
C        3.68830069       9.22758186       0.00000000
C       -0.00000016       0.00000045       0.00000000
C        1.22943331       0.70981453       0.00000000
C        3.68830133       2.12944276       0.00000000
C       11.06490598       0.70981408       0.00000000
C        1.22943344       2.12944261       0.00000000
C        2.45886687       2.83925723       0.00000000
C       -0.00000052       2.83925572       0.00000000
C        2.45886726       4.25888436       0.00000000
C        1.22943258       4.96869923       0.00000000
C        2.45886698       8.51776817       3.35461664
C        1.22943285       7.80795427       3.35461664
C        2.45886636       9.93739611       3.35461664
C        9.83547186       0.00000016       3.35461664
C        7.37660416       0.00000013       3.35461664
C       -1.22943434       2.12944225       3.35461664
C        9.83547124       1.41962810       3.35461664
C       -0.00000180       9.93739690       3.35461664
C        7.37660350       1.41962817       3.35461664
C        8.60603756       2.12944218       3.35461664
C       -1.22943471       3.54907020       3.35461664
C       -0.00000069       4.25888430       3.35461664
C        6.14717000       2.12944192       3.35461664
C        4.91773555       1.41962858       3.35461664
C        8.60603701       3.54906999       3.35461664
C       -2.45886859       4.25888414       3.35461664
C       -0.00000105       5.67851227       3.35461664
C        1.22943298       6.38832636       3.35461664
C        6.14716931       3.54906999       3.35461664
C        7.37660325       4.25888419       3.35461664
C       -1.22943487       6.38832611       3.35461664
C       -2.45886906       5.67851231       3.35461664
C       -3.68830270       6.38832586       3.35461664
C        7.37660288       5.67851171       3.35461664
C        3.68830121       3.54907067       3.35461664
C        4.91773521       4.25888478       3.35461664
C       -1.22943533       7.80795427       3.35461664
C       -0.00000133       8.51776838       3.35461664
C       -3.68830323       7.80795411       3.35461664
C        4.91773472       5.67851251       3.35461664
C        6.14716873       6.38832661       3.35461664
C       -2.45886934       8.51776843       3.35461664
C        3.68830175       6.38832535       3.35461664
C        6.14716871       7.80795352       3.35461664
C        2.45886691       5.67851268       3.35461664
C       -2.45886951       9.93739608       3.35461664
C        4.91773586       0.00000033       3.35461664
C       -4.91773759       8.51776890       3.35461664
C        3.68830102       7.80795349       3.35461664
C        4.91773467       8.51776822       3.35461664
C        2.45886773       0.00000060       3.35461664
C       -4.91773788       9.93739675       3.35461664
C        4.91773441       9.93739553       3.35461664
C       -0.00000016       0.00000045       3.35461664
C        2.45886745       1.41962844       3.35461664
C        3.68830133       2.12944276       3.35461664
C        1.22943344       2.12944261       3.35461664
C       -0.00000118       1.41962953       3.35461664
C        2.45886726       4.25888436       3.35461664
C        1.22943333       3.54907058       3.35461664
C        2.49467936       8.52972085       6.64846322
C        9.87090479       0.00785108       6.68020939
C        1.26545131       9.23778967       6.64273617
C        7.41238334       0.00747694       6.65756143
C        8.64191965       0.71718556       6.67558205
C       -1.19691036       2.13337048       6.71903030
C        6.18378138       0.71540489       6.65434648
C        8.64208269       2.13700871       6.68167716
C        0.02719166       4.27143672       6.74215164
C        9.86886191       2.84615170       6.69583556
C        6.18500331       2.13547528       6.66365823
C        7.41344824       2.84673540       6.67740915
C       -2.42872073       4.26722568       6.68946280
C       -1.20779551       4.98423098       6.69979551
C        1.26312280       6.40623135       6.64669115
C        4.95909943       2.84219513       6.66662514
C        7.41379061       4.26554940       6.68233502
C       -1.19786908       6.40220862       6.65554126
C        8.64013397       4.97745342       6.67973413
C        0.03296522       7.11116436       6.62978379
C       -3.65440663       6.39662956       6.67376266
C        6.18865400       4.97687702       6.69438952
C       -2.42593925       7.10877067       6.65557987
C        4.96715449       4.26086809       6.70914179
C        0.03496236       8.52719341       6.63114086
C        3.73505137       4.98201828       6.75157519
C        7.41121929       7.10591781       6.68224214
C        6.18405251       6.39762931       6.69347499
C       -2.42437543       8.52726073       6.64720446
C       -1.19472055       9.23558715       6.64113547
C        3.72646812       6.41183213       6.70527840
C       -3.65359076       9.23417907       6.65883075
C        4.95604550       7.11168390       6.69379217
C        4.95487733       0.00659614       6.64548607
C       -4.88174500       8.52623450       6.67586600
C        2.49382723       7.11350707       6.65439185
C        4.95416752       8.52906173       6.68243614
C        3.72532015       0.71378380       6.64361444
C        2.49573946       0.00512769       6.65427619
C        6.18362459       9.23651999       6.68225821
C        3.72486172       9.23739316       6.67101323
C        0.03603983       0.00691352       6.68532782
C        1.26715125       0.71363701       6.67341870
C        3.72606646       2.13026324       6.64687780
C       11.09993106       0.71598175       6.69700694
C        1.27173238       2.12923712       6.69236340
C        2.49939297       2.83136138       6.67879771
C        0.03512252       2.83905712       6.75286844
C        2.49935806       4.26238533       6.76342245
C        1.25975382       4.99111870       6.72699409
Pd       3.13659509       4.67321322       8.87211662
Pd       1.85081772       3.34771217      11.01491007
Pd       1.40258133       5.96845170      10.69299713
Pd       0.43979821       4.20756290       8.88681735
O        3.07773861       4.88961259      10.86947262
155
Lattice="12.29434013 0.0 0.0 -6.14717148 10.64721006 0.0 0.0 0.0 22.0" Properties=species:S:1:pos:R:3 energy_eV=-1419.3558 mag=1.9742 pbc="T T T"
C        3.68830054      10.64720991       0.00000000
C        2.45886661       8.51776818       0.00000000
C        8.60603735       0.70981394       0.00000000
C        1.22943252      10.64720991       0.00000000
C        1.22943266       9.22758225       0.00000000
C        1.22943292       6.38832597       0.00000000
C        6.14716944       0.70981394       0.00000000
C       -0.00000141       8.51776818       0.00000000
C       -0.00000088       4.25888400       0.00000000
C       -0.00000162       7.09814005       0.00000000
C       -1.22943523      10.64720991       0.00000000
C       -1.22943516       9.22758225       0.00000000
C       -1.22943496       6.38832597       0.00000000
C       -1.22943488       4.96869830       0.00000000
C       11.06490545       2.12944202       0.00000000
C        3.68830141       0.70981394       0.00000000
C       -2.45886943       8.51776819       0.00000000
C        9.83547147       4.25888400       0.00000000
C       -2.45886954       7.09814005       0.00000000
C        9.83547138       2.83925608       0.00000000
C       -3.68830263       6.38832597       0.00000000
C       -3.68830363       9.22758226       0.00000000
C        8.60603739       4.96869830       0.00000000
C       -3.68830424      10.64720992       0.00000000
C        8.60603742       2.12944201       0.00000000
C        1.22943304       0.70981394       0.00000000
C        7.37660258       7.09814005       0.00000000
C        7.37660220       8.51776819       0.00000000
C        7.37660309       4.25888399       0.00000000
C        7.37660323       2.83925608       0.00000000
C       -6.14717060      10.64720992       0.00000000
C        6.14716913       4.96869830       0.00000000
C        6.14716800       9.22758224       0.00000000
C        6.14716941       2.12944201       0.00000000
C        6.14716828       6.38832596       0.00000000
C       11.06490585       0.70981393       0.00000000
C        4.91773464       8.51776818       0.00000000
C        4.91773520       2.83925608       0.00000000
C        4.91773482       4.25888399       0.00000000
C        4.91773408       7.09814004       0.00000000
C        3.68830092       9.22758225       0.00000000
C        3.68830073       6.38832596       0.00000000
C        3.68830063       4.96869829       0.00000000
C        3.68830090       2.12944201       0.00000000
C        2.45886700       7.09814004       0.00000000
C        2.45886680       4.25888399       0.00000000
C        2.45886623       2.83925608       0.00000000
C        1.22943355       4.96869830       0.00000000
C        1.22943335       2.12944201       0.00000000
C       -0.00000180       2.83925608       0.00000000
C        3.68830054      10.64720991       3.35461664
C        9.83547165       1.41962801       3.35461664
C        2.45886648       9.93739632       3.35461664
C        2.45886661       8.51776818       3.35461664
C        1.22943252      10.64720991       3.35461664
C        1.22943292       6.38832597       3.35461664
C        1.22943256       7.80795459       3.35461664
C        7.37660290       1.41962801       3.35461664
C       -0.00000166       9.93739632       3.35461664
C       -0.00000141       8.51776818       3.35461664
C       -0.00000101       5.67851213       3.35461664
C       -0.00000088       4.25888400       3.35461664
C       -1.22943523      10.64720991       3.35461664
C        4.91773520       1.41962801       3.35461664
C       -1.22943533       7.80795459       3.35461664
C       -1.22943496       6.38832597       3.35461664
C       -1.22943483       3.54907016       3.35461664
C       11.06490545       2.12944202       3.35461664
C       -2.45886945       9.93739632       3.35461664
C       -2.45886943       8.51776819       3.35461664
C        9.83547147       4.25888400       3.35461664
C       -2.45886916       5.67851214       3.35461664
C       -3.68830263       6.38832597       3.35461664
C       -3.68830302       7.80795459       3.35461664
C        2.45886710       1.41962800       3.35461664
C       -3.68830424      10.64720992       3.35461664
C        8.60603729       3.54907015       3.35461664
C        8.60603742       2.12944201       3.35461664
C        7.37660319       5.67851213       3.35461664
C       -4.91773807       9.93739632       3.35461664
C        7.37660220       8.51776819       3.35461664
C        7.37660309       4.25888399       3.35461664
C       -6.14717060      10.64720992       3.35461664
C        6.14716934       7.80795458       3.35461664
C       -0.00000094       1.41962801       3.35461664
C        6.14716950       3.54907015       3.35461664
C        6.14716941       2.12944201       3.35461664
C        6.14716828       6.38832596       3.35461664
C        4.91773522       9.93739632       3.35461664
C        4.91773464       8.51776818       3.35461664
C        4.91773482       4.25888399       3.35461664
C        4.91773445       5.67851212       3.35461664
C        3.68830130       7.80795458       3.35461664
C        3.68830073       6.38832596       3.35461664
C        3.68830101       3.54907015       3.35461664
C        3.68830090       2.12944201       3.35461664
C        2.45886680       4.25888399       3.35461664
C        2.45886547       5.67851213       3.35461664
C        1.22943335       2.12944201       3.35461664
C        1.22943297       3.54906992       3.35461664
C        9.80859661       0.01545286       6.63318552
C        2.42875803       8.53946813       6.60696277
C        8.57893538       0.72462445       6.63905213
C        7.35044025       0.01553797       6.64644543
C        1.20073425       9.24525806       6.62916036
C        1.19811167       6.41655528       6.66324141
C        6.12192893       0.72140705       6.67930391
C       -0.02795158       8.53535756       6.64771029
C       -0.03519398       4.26842649       6.70797629
C       -0.02983699       7.11790111       6.66069829
C        4.89104414       0.01178043       6.68120136
C       -1.25631086       9.24261289       6.66767863
C       -1.25630723       6.40335348       6.67775537
C       -1.25711121       4.98212011       6.68701763
C       11.03781962       2.14288652       6.65313108
C        3.65977232       0.71657646       6.68606809
C       -2.48496779       8.53102248       6.67110388
C        9.81060757       4.27129743       6.66456691
C       -2.48199349       7.11199359       6.67136756
C        9.81071690       2.85305192       6.65364994
C        8.58402497       6.40142161       6.66472488
C       -3.71430081       9.23919151       6.67260462
C        8.58464485       4.98323504       6.65405861
C        2.43068495       0.00985308       6.67297468
C        8.58052888       2.14314989       6.64524968
C        1.20192186       0.71986292       6.66207149
C        7.35742942       7.11337907       6.67007847
C        7.35209075       8.53225839       6.67299551
C        7.35843759       4.27285595       6.64203799
C        7.35589217       2.85106737       6.65362294
C       12.26667637       0.01358159       6.65786830
C        6.13919631       4.98576842       6.65344665
C        6.12291866       9.24376832       6.67088478
C        6.12811663       2.13843483       6.69614450
C        6.13517490       6.40185378       6.67657868
C       11.03858742       0.72271675       6.64679638
C        4.89232513       8.54219230       6.67346608
C        4.89299246       2.84416025       6.73409012
C        4.89694137       4.27550915       6.68751686
C        4.89804809       7.11899369       6.70885254
C        3.66035233       9.24814520       6.62858421
C        3.65546439       6.40763073       6.65398790
C        3.66135772       4.98383395       6.62491922
C        3.65473339       2.13192838       6.69762860
C        2.42133577       7.12545534       6.61295866
C        2.43131674       4.26727747       6.70113370
C        2.42693847       2.83598774       6.67844208
C        1.19576844       4.98874141       6.73836901
C        1.19904215       2.13551231       6.65947907
C       -0.03030987       2.84899557       6.66785302
Pd       3.84121623       5.16177445      11.07711040
Pd       2.02259973       4.66727156       8.89111814
Pd       4.19229105       6.51749389       8.85113940
Pd       4.69144681       3.92130574       8.89672183
O        2.01311742       4.79428572      10.81164399
155
Lattice="12.29434013 0.0 0.0 -6.14717148 10.64721006 0.0 0.0 0.0 22.0" Properties=species:S:1:pos:R:3 energy_eV=-1419.3491 mag=1.9925 pbc="T T T"
C        2.45886698       8.51776817       0.00000000
C        9.83547186       0.00000016       0.00000000
C        1.22943253       9.22758264       0.00000000
C        7.37660416       0.00000013       0.00000000
C        8.60603776       0.70981401       0.00000000
C       -1.22943434       2.12944225       0.00000000
C        6.14716978       0.70981449       0.00000000
C        8.60603756       2.12944218       0.00000000
C       -0.00000069       4.25888430       0.00000000
C        9.83547138       2.83925661       0.00000000
C        6.14717000       2.12944192       0.00000000
C        7.37660356       2.83925585       0.00000000
C       -2.45886859       4.25888414       0.00000000
C       -1.22943502       4.96869807       0.00000000
C        1.22943298       6.38832636       0.00000000
C        4.91773547       2.83925652       0.00000000
C        7.37660325       4.25888419       0.00000000
C       -1.22943487       6.38832611       0.00000000
C        8.60603714       4.96869852       0.00000000
C       -0.00000118       7.09814031       0.00000000
C       -3.68830270       6.38832586       0.00000000
C        6.14716905       4.96869825       0.00000000
C       -2.45886923       7.09813994       0.00000000
C        4.91773521       4.25888478       0.00000000
C       -0.00000133       8.51776838       0.00000000
C        3.68830100       4.96869883       0.00000000
C        7.37660285       7.09814053       0.00000000
C        6.14716873       6.38832661       0.00000000
C       -2.45886934       8.51776843       0.00000000
C       -1.22943553       9.22758243       0.00000000
C        3.68830175       6.38832535       0.00000000
C       -3.68830365       9.22758216       0.00000000
C        4.91773452       7.09814068       0.00000000
C        4.91773586       0.00000033       0.00000000
C       -4.91773759       8.51776890       0.00000000
C        2.45886707       7.09814022       0.00000000
C        4.91773467       8.51776822       0.00000000
C        3.68830165       0.70981439       0.00000000
C        2.45886773       0.00000060       0.00000000
C        6.14716832       9.22758296       0.00000000
C        3.68830069       9.22758186       0.00000000
C       -0.00000016       0.00000045       0.00000000
C        1.22943331       0.70981453       0.00000000
C        3.68830133       2.12944276       0.00000000
C       11.06490598       0.70981408       0.00000000
C        1.22943344       2.12944261       0.00000000
C        2.45886687       2.83925723       0.00000000
C       -0.00000052       2.83925572       0.00000000
C        2.45886726       4.25888436       0.00000000
C        1.22943258       4.96869923       0.00000000
C        2.45886698       8.51776817       3.35461664
C        1.22943285       7.80795427       3.35461664
C        2.45886636       9.93739611       3.35461664
C        9.83547186       0.00000016       3.35461664
C        7.37660416       0.00000013       3.35461664
C       -1.22943434       2.12944225       3.35461664
C        9.83547124       1.41962810       3.35461664
C       -0.00000180       9.93739690       3.35461664
C        7.37660350       1.41962817       3.35461664
C        8.60603756       2.12944218       3.35461664
C       -1.22943471       3.54907020       3.35461664
C       -0.00000069       4.25888430       3.35461664
C        6.14717000       2.12944192       3.35461664
C        4.91773555       1.41962858       3.35461664
C        8.60603701       3.54906999       3.35461664
C       -2.45886859       4.25888414       3.35461664
C       -0.00000105       5.67851227       3.35461664
C        1.22943298       6.38832636       3.35461664
C        6.14716931       3.54906999       3.35461664
C        7.37660325       4.25888419       3.35461664
C       -1.22943487       6.38832611       3.35461664
C       -2.45886906       5.67851231       3.35461664
C       -3.68830270       6.38832586       3.35461664
C        7.37660288       5.67851171       3.35461664
C        3.68830121       3.54907067       3.35461664
C        4.91773521       4.25888478       3.35461664
C       -1.22943533       7.80795427       3.35461664
C       -0.00000133       8.51776838       3.35461664
C       -3.68830323       7.80795411       3.35461664