156
Lattice="12.29434013 0.0 0.0 -6.14717148 10.64721006 0.0 0.0 0.0 22.0" Properties=species:S:1:pos:R:3 energy_eV=-1426.31 mag=0.9983 pbc="T T T"
C        2.45886762       4.25888403       0.00000000
C        4.91773551       4.25888372       0.00000000
C        2.45886802       2.83925549       0.00000000
C        3.68830192       2.12944201       0.00000000
C        4.91773557       2.83925580       0.00000000
C        7.37660370       4.25888386       0.00000000
C        3.68830226       0.70981359       0.00000000
C        6.14716981       2.12944171       0.00000000
C       -2.45886841       4.25888378       0.00000000
C        7.37660405       2.83925543       0.00000000
C        4.91773609       0.00000023       0.00000000
C        6.14716977       0.70981398       0.00000000
C        8.60603792       2.12944197       0.00000000
C        9.83547159       2.83925570       0.00000000
C       -0.00000037       4.25888371       0.00000000
C       -1.22943490       9.22758164       0.00000000
C        1.22943263      10.64720976       0.00000000
C       -1.22943424       2.12944197       0.00000000
C        8.60603828       0.70981352       0.00000000
C       -0.00000026       2.83925568       0.00000000
C        9.83547204       0.00000025       0.00000000
C        1.22943281       9.22758164       0.00000000
C       11.06490581       0.70981384       0.00000000
C       -0.00000061       8.51776744       0.00000000
C        1.22943393       2.12944169       0.00000000
C       -0.00000044       7.09813931       0.00000000
C        3.68830110       9.22758157       0.00000000
C        2.45886716       8.51776734       0.00000000
C       -6.14717124      10.64720971       0.00000000
C        1.22943409       0.70981357       0.00000000
C        1.22943285       6.38832687       0.00000000
C        6.14716874       9.22758168       0.00000000
C        2.45886734       7.09813920       0.00000000
C       -3.68830325      10.64720974       0.00000000
C        4.91773546       8.51776727       0.00000000
C        1.22943350       4.96869792       0.00000000
C        3.68830121       6.38832574       0.00000000
C       -3.68830308       9.22758161       0.00000000
C       -4.91773682       8.51776749       0.00000000
C        4.91773563       7.09813914       0.00000000
C        3.68830115       4.96869802       0.00000000
C        6.14716952       6.38832567       0.00000000
C        7.37660328       7.09813925       0.00000000
C       -2.45886870       8.51776731       0.00000000
C        6.14716945       4.96869795       0.00000000
C       -3.68830253       6.38832548       0.00000000
C       -2.45886830       7.09813877       0.00000000
C        8.60603710       4.96869807       0.00000000
C       -1.22943466       6.38832572       0.00000000
C       -1.22943402       4.96869677       0.00000000
C        2.45886762       4.25888403       3.35461664
C        1.22943368       3.54906979       3.35461664
C        3.68830145       3.54906968       3.35461664
C        4.91773551       4.25888372       3.35461664
C        3.68830192       2.12944201       3.35461664
C        7.37660370       4.25888386       3.35461664
C        6.14716934       3.54906938       3.35461664
C        2.45886833       1.41962716       3.35461664
C        4.91773581       1.41962758       3.35461664
C        6.14716981       2.12944171       3.35461664
C        8.60603767       3.54906975       3.35461664
C       -2.45886841       4.25888378       3.35461664
C        4.91773609       0.00000023       3.35461664
C       -2.45886901       9.93739549       3.35461664
C        7.37660357       1.41962751       3.35461664
C        8.60603792       2.12944197       3.35461664
C       -1.22943442       3.54906965       3.35461664
C       -0.00000037       4.25888371       3.35461664
C       -0.00000148       9.93739584       3.35461664
C        1.22943263      10.64720976       3.35461664
C       -1.22943424       2.12944197       3.35461664
C        9.83547202       1.41962764       3.35461664
C        9.83547204       0.00000025       3.35461664
C        2.45886622       9.93739584       3.35461664
C       -1.22943466       7.80795341       3.35461664
C       -0.00000061       8.51776744       3.35461664
C       -0.00000014       1.41962766       3.35461664
C        1.22943393       2.12944169       3.35461664
C        4.91773472       9.93739590       3.35461664
C        1.22943311       7.80795330       3.35461664
C        2.45886716       8.51776734       3.35461664
C       -6.14717124      10.64720971       3.35461664
C        1.22943285       6.38832687       3.35461664
C        3.68830040       7.80795403       3.35461664
C       -0.00000038       5.67851139       3.35461664
C       -4.91773744       9.93739591       3.35461664
C       -3.68830325      10.64720974       3.35461664
C        4.91773546       8.51776727       3.35461664
C        2.45886680       5.67851232       3.35461664
C        3.68830121       6.38832574       3.35461664
C       -4.91773682       8.51776749       3.35461664
C        6.14716937       7.80795325       3.35461664
C        4.91773469       5.67851202       3.35461664
C        6.14716952       6.38832567       3.35461664
C       -3.68830290       7.80795349       3.35461664
C       -2.45886870       8.51776731       3.35461664
C       -3.68830253       6.38832548       3.35461664
C        7.37660414       5.67851042       3.35461664
C       -1.22943466       6.38832572       3.35461664
C       -2.45886840       5.67851159       3.35461664
C        2.48609628       4.30706045       6.82214317
C        4.94737609       4.30409514       6.65894415
C        2.49383666       2.86810232       6.76932571
C        3.73807679       2.16031906       6.65645581
C        4.95261589       2.87958939       6.62160456
C        7.40965632       4.30318774       6.60738172
C        3.72458409       0.74766384       6.62634009
C        6.17986189       2.17203665       6.60166056
C       -2.43012865       4.30407672       6.60008195
C        7.40815628       2.88305528       6.60474552
C        4.94934283       0.04143243       6.61544996
C        6.17916885       0.75413603       6.61150402
C        8.63413854       2.17571188       6.61526296
C        9.86462138       2.88616838       6.61374685
C        0.02497563       4.31142416       6.63438259
C       -1.19981168       9.27200122       6.62291196
C        7.40679583       0.04622676       6.62457410
C       -1.20194150       2.17422982       6.63489221
C        8.63448165       0.75568316       6.62936055
C        0.02418294       2.88418227       6.65382801
C        9.86344283       0.04564300       6.65495103
C        1.25623885       9.27425163       6.64171567
C       11.09304327       0.75521317       6.66277218
C        0.02751256       8.56412788       6.63623407
C        1.24296159       2.16324983       6.69976185
C        0.02451858       7.14744192       6.63823100
C        3.71508542       9.27793444       6.69627357
C        2.48077714       8.56568615       6.68030260
C        0.02707882       0.04383370       6.68091369
C        1.25588363       0.74725596       6.67384225
C        1.25120362       6.43944775       6.67952750
C        6.18075801       9.27551529       6.70612091
C        2.47652884       7.15219462       6.73283517
C        2.48892401       0.04337639       6.64275701
C        4.94742799       8.57790969       6.75176045
C        1.24348591       5.02539578       6.70005611
C        3.71376283       6.43330488       6.82980592
C       -3.65992184       9.27315488       6.63721868
C       -4.88689491       8.56372283       6.66758899
C        4.96526503       7.14543704       6.81114519
C        3.73392627       5.00529217       6.75195743
C        6.19734034       6.42255932       6.69600949
C        7.41341046       7.14128065       6.65689543
C       -2.42844519       8.56276556       6.62272584
C        6.18478220       5.01218992       6.64225632
C       -3.65481082       6.43373690       6.62244422
C       -2.42832810       7.14588289       6.62057032
C        8.63824957       5.01357708       6.60630548
C       -1.20122964       6.43604276       6.61857704
C       -1.20218066       5.01699278       6.60854235
Pt       2.29349322       3.38996260       8.84016684
Pt       3.38603288       5.15139499      10.22624810
Pt       4.39026058       7.01993284       8.89217849
Pt       4.64695723       6.88668763      11.37405161
O        2.30373745       3.46610608      10.87914714
H        1.41690958       3.74303122      11.19017366
156
Lattice="12.29434013 0.0 0.0 -6.14717148 10.64721006 0.0 0.0 0.0 22.0" Properties=species:S:1:pos:R:3 energy_eV=-1426.1709 mag=1.006 pbc="T T T"
C        2.45886762       4.25888403       0.00000000
C        4.91773551       4.25888372       0.00000000
C        2.45886802       2.83925549       0.00000000
C        3.68830192       2.12944201       0.00000000
C        4.91773557       2.83925580       0.00000000
C        7.37660370       4.25888386       0.00000000
C        3.68830226       0.70981359       0.00000000
C        6.14716981       2.12944171       0.00000000
C       -2.45886841       4.25888378       0.00000000
C        7.37660405       2.83925543       0.00000000
C        4.91773609       0.00000023       0.00000000
C        6.14716977       0.70981398       0.00000000
C        8.60603792       2.12944197       0.00000000
C        9.83547159       2.83925570       0.00000000
C       -0.00000037       4.25888371       0.00000000
C       -1.22943490       9.22758164       0.00000000
C        1.22943263      10.64720976       0.00000000
C       -1.22943424       2.12944197       0.00000000
C        8.60603828       0.70981352       0.00000000
C       -0.00000026       2.83925568       0.00000000
C        9.83547204       0.00000025       0.00000000
C        1.22943281       9.22758164       0.00000000
C       11.06490581       0.70981384       0.00000000
C       -0.00000061       8.51776744       0.00000000
C        1.22943393       2.12944169       0.00000000
C       -0.00000044       7.09813931       0.00000000
C        3.68830110       9.22758157       0.00000000
C        2.45886716       8.51776734       0.00000000
C       -6.14717124      10.64720971       0.00000000
C        1.22943409       0.70981357       0.00000000
C        1.22943285       6.38832687       0.00000000
C        6.14716874       9.22758168       0.00000000
C        2.45886734       7.09813920       0.00000000
C       -3.68830325      10.64720974       0.00000000
C        4.91773546       8.51776727       0.00000000
C        1.22943350       4.96869792       0.00000000
C        3.68830121       6.38832574       0.00000000
C       -3.68830308       9.22758161       0.00000000
C       -4.91773682       8.51776749       0.00000000
C        4.91773563       7.09813914       0.00000000
C        3.68830115       4.96869802       0.00000000
C        6.14716952       6.38832567       0.00000000
C        7.37660328       7.09813925       0.00000000
C       -2.45886870       8.51776731       0.00000000
C        6.14716945       4.96869795       0.00000000
C       -3.68830253       6.38832548       0.00000000
C       -2.45886830       7.09813877       0.00000000
C        8.60603710       4.96869807       0.00000000
C       -1.22943466       6.38832572       0.00000000
C       -1.22943402       4.96869677       0.00000000
C        2.45886762       4.25888403       3.35461664
C        1.22943368       3.54906979       3.35461664
C        3.68830145       3.54906968       3.35461664
C        4.91773551       4.25888372       3.35461664
C        3.68830192       2.12944201       3.35461664
C        7.37660370       4.25888386       3.35461664
C        6.14716934       3.54906938       3.35461664
C        2.45886833       1.41962716       3.35461664
C        4.91773581       1.41962758       3.35461664
C        6.14716981       2.12944171       3.35461664
C        8.60603767       3.54906975       3.35461664
C       -2.45886841       4.25888378       3.35461664
C        4.91773609       0.00000023       3.35461664
C       -2.45886901       9.93739549       3.35461664
C        7.37660357       1.41962751       3.35461664
C        8.60603792       2.12944197       3.35461664
C       -1.22943442       3.54906965       3.35461664
C       -0.00000037       4.25888371       3.35461664
C       -0.00000148       9.93739584       3.35461664
C        1.22943263      10.64720976       3.35461664
C       -1.22943424       2.12944197       3.35461664
C        9.83547202       1.41962764       3.35461664
C        9.83547204       0.00000025       3.35461664
C        2.45886622       9.93739584       3.35461664
C       -1.22943466       7.80795341       3.35461664
C       -0.00000061       8.51776744       3.35461664
C       -0.00000014       1.41962766       3.35461664
C        1.22943393       2.12944169       3.35461664
C        4.91773472       9.93739590       3.35461664
C        1.22943311       7.80795330       3.35461664
C        2.45886716       8.51776734       3.35461664
C       -6.14717124      10.64720971       3.35461664
C        1.22943285       6.38832687       3.35461664
C        3.68830040       7.80795403       3.35461664
C       -0.00000038       5.67851139       3.35461664
C       -4.91773744       9.93739591       3.35461664
C       -3.68830325      10.64720974       3.35461664
C        4.91773546       8.51776727       3.35461664
C        2.45886680       5.67851232       3.35461664
C        3.68830121       6.38832574       3.35461664
C       -4.91773682       8.51776749       3.35461664
C        6.14716937       7.80795325       3.35461664
C        4.91773469       5.67851202       3.35461664
C        6.14716952       6.38832567       3.35461664
C       -3.68830290       7.80795349       3.35461664
C       -2.45886870       8.51776731       3.35461664
C       -3.68830253       6.38832548       3.35461664
C        7.37660414       5.67851042       3.35461664
C       -1.22943466       6.38832572       3.35461664
C       -2.45886840       5.67851159       3.35461664
C        2.37842133       4.25115055       6.67166185
C        4.82972330       4.23514484       6.84471213
C        2.38334512       2.82839157       6.66109100
C        3.60991249       2.11330600       6.67497701
C        4.84125558       2.81020529       6.72821098
C        7.31843887       4.24183696       6.74402080
C        3.61058562       0.69678078       6.64758334
C        6.07287010       2.11338434       6.66893850
C        9.76486727       4.25037193       6.65718595
C        7.30834418       2.82737180       6.67634745
C       -1.30922646      10.63651771       6.63430784
C        6.06940214       0.70091002       6.62800796
C        8.53265312       2.12329016       6.63845015
C        9.76355621       2.83393093       6.64421168
C       -0.07391863       4.25558011       6.63972200
C       -1.31075596       9.21898747       6.62948842
C        1.15273035      10.64170827       6.61049130
C       10.99260551       2.12605526       6.63253405
C        8.52871482       0.70410936       6.61675985
C       -0.07376122       2.83564569       6.63837616
C        3.61257214      10.64541243       6.61997441
C        1.14948255       9.22290319       6.61404296
C       10.99223930       0.70826774       6.63005999
C       -0.08228964       8.51133193       6.62505734
C        1.15578751       2.12476630       6.64256778
C       -0.08366766       7.09476177       6.63664724
C        3.60922089       9.23305548       6.64089454
C        2.37463502       8.51967612       6.64161039
C       12.21871360       0.00035636       6.64065013
C        1.15501080       0.70488000       6.64027632
C        1.14308079       6.38559278       6.65966390
C        6.07232183       9.22959862       6.66592008
C        2.36327740       7.10348160       6.70259799
C       -3.76716551      10.64027656       6.64233175
C        4.84042727       8.53242435       6.69863035
C        1.14876162       4.96627908       6.65170344
C        3.59315744       6.38319552       6.81632954
C       -3.76722278       9.22054933       6.64659405
C        7.29980969       8.51662523       6.66511633
C        4.85053212       7.10871531       6.81154840
C        3.59178198       4.95172211       6.75155997
C        6.08802516       6.39372914       6.75969682
C        7.30275164       7.09441086       6.68911949
C       -2.53838042       8.51021785       6.64095924
C        6.08760592       4.96272628       6.86491402
C        8.53343408       6.38021491       6.67945356
C       -2.53835053       7.09024721       6.65091112
C        8.53734122       4.95987298       6.69367890
C       -1.30817625       6.38063839       6.64215431
C       -1.30417841       4.96425037       6.64407898
Pt       4.13943197       6.76152806       8.94108992
Pt       3.49777156       4.98071397      10.73728583
Pt       5.66823630       6.22023136      10.92594992
Pt       5.38314240       4.56466377       8.96368971
O        1.88477992       3.99455399      11.13403035
H        2.02532893       3.03454638      11.01326865
156
Lattice="12.29434013 0.0 0.0 -6.14717148 10.64721006 0.0 0.0 0.0 22.0" Properties=species:S:1:pos:R:3 energy_eV=-1426.144 mag=0.9994 pbc="T T T"
C        2.45886762       4.25888403       0.00000000
C        4.91773551       4.25888372       0.00000000
C        2.45886802       2.83925549       0.00000000
C        3.68830192       2.12944201       0.00000000
C        4.91773557       2.83925580       0.00000000
C        7.37660370       4.25888386       0.00000000
C        3.68830226       0.70981359       0.00000000
C        6.14716981       2.12944171       0.00000000
C       -2.45886841       4.25888378       0.00000000
C        7.37660405       2.83925543       0.00000000
C        4.91773609       0.00000023       0.00000000
C        6.14716977       0.70981398       0.00000000
C        8.60603792       2.12944197       0.00000000
C        9.83547159       2.83925570       0.00000000
C       -0.00000037       4.25888371       0.00000000
C       -1.22943490       9.22758164       0.00000000
C        1.22943263      10.64720976       0.00000000
C       -1.22943424       2.12944197       0.00000000
C        8.60603828       0.70981352       0.00000000
C       -0.00000026       2.83925568       0.00000000
C        9.83547204       0.00000025       0.00000000
C        1.22943281       9.22758164       0.00000000
C       11.06490581       0.70981384       0.00000000
C       -0.00000061       8.51776744       0.00000000
C        1.22943393       2.12944169       0.00000000
C       -0.00000044       7.09813931       0.00000000
C        3.68830110       9.22758157       0.00000000
C        2.45886716       8.51776734       0.00000000
C       -6.14717124      10.64720971       0.00000000
C        1.22943409       0.70981357       0.00000000
C        1.22943285       6.38832687       0.00000000
C        6.14716874       9.22758168       0.00000000
C        2.45886734       7.09813920       0.00000000
C       -3.68830325      10.64720974       0.00000000
C        4.91773546       8.51776727       0.00000000
C        1.22943350       4.96869792       0.00000000
C        3.68830121       6.38832574       0.00000000
C       -3.68830308       9.22758161       0.00000000
C       -4.91773682       8.51776749       0.00000000
C        4.91773563       7.09813914       0.00000000
C        3.68830115       4.96869802       0.00000000
C        6.14716952       6.38832567       0.00000000
C        7.37660328       7.09813925       0.00000000
C       -2.45886870       8.51776731       0.00000000
C        6.14716945       4.96869795       0.00000000
C       -3.68830253       6.38832548       0.00000000
C       -2.45886830       7.09813877       0.00000000
C        8.60603710       4.96869807       0.00000000
C       -1.22943466       6.38832572       0.00000000
C       -1.22943402       4.96869677       0.00000000
C        2.45886762       4.25888403       3.35461664
C        1.22943368       3.54906979       3.35461664
C        3.68830145       3.54906968       3.35461664
C        4.91773551       4.25888372       3.35461664
C        3.68830192       2.12944201       3.35461664
C        7.37660370       4.25888386       3.35461664
C        6.14716934       3.54906938       3.35461664
C        2.45886833       1.41962716       3.35461664
C        4.91773581       1.41962758       3.35461664
C        6.14716981       2.12944171       3.35461664
C        8.60603767       3.54906975       3.35461664
C       -2.45886841       4.25888378       3.35461664
C        4.91773609       0.00000023       3.35461664
C       -2.45886901       9.93739549       3.35461664
C        7.37660357       1.41962751       3.35461664
C        8.60603792       2.12944197       3.35461664
C       -1.22943442       3.54906965       3.35461664
C       -0.00000037       4.25888371       3.35461664
C       -0.00000148       9.93739584       3.35461664
C        1.22943263      10.64720976       3.35461664
C       -1.22943424       2.12944197       3.35461664
C        9.83547202       1.41962764       3.35461664
C        9.83547204       0.00000025       3.35461664
C        2.45886622       9.93739584       3.35461664
C       -1.22943466       7.80795341       3.35461664
C       -0.00000061       8.51776744       3.35461664
C       -0.00000014       1.41962766       3.35461664
C        1.22943393       2.12944169       3.35461664
C        4.91773472       9.93739590       3.35461664
C        1.22943311       7.80795330       3.35461664
C        2.45886716       8.51776734       3.35461664
C       -6.14717124      10.64720971       3.35461664
C        1.22943285       6.38832687       3.35461664
C        3.68830040       7.80795403       3.35461664
C       -0.00000038       5.67851139       3.35461664
C       -4.91773744       9.93739591       3.35461664
C       -3.68830325      10.64720974       3.35461664
C        4.91773546       8.51776727       3.35461664
C        2.45886680       5.67851232       3.35461664
C        3.68830121       6.38832574       3.35461664
C       -4.91773682       8.51776749       3.35461664
C        6.14716937       7.80795325       3.35461664
C        4.91773469       5.67851202       3.35461664
C        6.14716952       6.38832567       3.35461664
C       -3.68830290       7.80795349       3.35461664
C       -2.45886870       8.51776731       3.35461664
C       -3.68830253       6.38832548       3.35461664
C        7.37660414       5.67851042       3.35461664
C       -1.22943466       6.38832572       3.35461664
C       -2.45886840       5.67851159       3.35461664
C        2.40333339       4.30169288       6.58910289
C        4.89174670       4.31014865       6.67143268
C        2.41547427       2.88995611       6.57269658
C        3.64914342       2.18718800       6.61781750
C        4.88195585       2.89693277       6.63948564
C        7.33865776       4.31530617       6.62297187
C        3.65031547       0.77226432       6.63645220
C        6.11041262       2.18803533       6.63520568
C        9.79422526       4.31664172       6.59975946
C        7.33801444       2.89708250       6.62480707
C        4.88061536       0.06322825       6.66464017
C        6.10817301       0.77009841       6.64862888
C        8.56793223       2.18595732       6.60532588
C        9.79503203       2.89382084       6.58579345
C       -0.04490350       4.30712634       6.55694450
C       -1.26757712       9.29223077       6.70321411
C        7.33807565       0.06023568       6.63441502
C       11.02328532       2.18479449       6.56998350
C        8.56732497       0.76867621       6.60662173
C       -0.04224905       2.89218621       6.54944662
C        9.79783420       0.05874268       6.59127674
C        1.19021850       9.29224570       6.66130626
C       11.02623085       0.76711011       6.58046637
C       -0.03837152       8.59089259       6.74178339
C        1.18764727       2.18388048       6.55914483
C       -0.05039204       7.16156398       6.81487021
C        3.65360118       9.29010761       6.59999885
C        2.42337788       8.58517329       6.62929283
C       12.25635298       0.05935584       6.58575165
C        1.19102116       0.76727014       6.58656533
C        1.19197417       6.43592269       6.76698806
C        6.11384053       9.28902694       6.60339693
C        2.42941234       7.17623487       6.67560148
C        2.42040463       0.06028956       6.62196372
C        4.88636288       8.58210202       6.60820766
C        1.18267731       5.00171390       6.58086554
C        3.66311063       6.45975317       6.71271443
C       -3.72433481       9.28787557       6.64320813
C        7.34136830       8.57750870       6.62458142
C        4.89944614       7.16789787       6.64701119
C        3.64640427       5.01699301       6.74776012
C        6.11603565       6.45011909       6.63375929
C        7.34122309       7.15860451       6.62907782
C       -2.49714514       8.57856943       6.68370074
C        6.11138499       5.02483646       6.64237497
C        8.56707252       6.44526538       6.63808322
C       -2.50086971       7.15462776       6.68404779
C        8.56602067       5.02732065       6.62026499
C       -1.28131457       6.43878891       6.71572718
C       -1.27537598       5.02168309       6.61610280
Pt       3.57307465       3.88986739      10.40058199
Pt       3.25093552       5.77841030       8.84446937
Pt       1.98375502       5.70997587      10.99913546
Pt       0.80461342       6.55264859       8.87768271
O        4.71660361       2.36942068      10.61358194
H        4.33614800       1.62497842      10.09954953
156
Lattice="12.29434013 0.0 0.0 -6.14717148 10.64721006 0.0 0.0 0.0 22.0" Properties=species:S:1:pos:R:3 energy_eV=-1426.0725 mag=1.0282 pbc="T T T"
C        2.45886762       4.25888403       0.00000000
C        4.91773551       4.25888372       0.00000000
C        2.45886802       2.83925549       0.00000000
C        3.68830192       2.12944201       0.00000000
C        4.91773557       2.83925580       0.00000000
C        7.37660370       4.25888386       0.00000000
C        3.68830226       0.70981359       0.00000000
C        6.14716981       2.12944171       0.00000000
C       -2.45886841       4.25888378       0.00000000
C        7.37660405       2.83925543       0.00000000
C        4.91773609       0.00000023       0.00000000
C        6.14716977       0.70981398       0.00000000
C        8.60603792       2.12944197       0.00000000
C        9.83547159       2.83925570       0.00000000
C       -0.00000037       4.25888371       0.00000000
C       -1.22943490       9.22758164       0.00000000
C        1.22943263      10.64720976       0.00000000
C       -1.22943424       2.12944197       0.00000000
C        8.60603828       0.70981352       0.00000000
C       -0.00000026       2.83925568       0.00000000
C        9.83547204       0.00000025       0.00000000
C        1.22943281       9.22758164       0.00000000
C       11.06490581       0.70981384       0.00000000
C       -0.00000061       8.51776744       0.00000000
C        1.22943393       2.12944169       0.00000000
C       -0.00000044       7.09813931       0.00000000
C        3.68830110       9.22758157       0.00000000
C        2.45886716       8.51776734       0.00000000
C       -6.14717124      10.64720971       0.00000000
C        1.22943409       0.70981357       0.00000000
C        1.22943285       6.38832687       0.00000000
C        6.14716874       9.22758168       0.00000000
C        2.45886734       7.09813920       0.00000000
C       -3.68830325      10.64720974       0.00000000
C        4.91773546       8.51776727       0.00000000
C        1.22943350       4.96869792       0.00000000
C        3.68830121       6.38832574       0.00000000
C       -3.68830308       9.22758161       0.00000000
C       -4.91773682       8.51776749       0.00000000
C        4.91773563       7.09813914       0.00000000
C        3.68830115       4.96869802       0.00000000
C        6.14716952       6.38832567       0.00000000
C        7.37660328       7.09813925       0.00000000
C       -2.45886870       8.51776731       0.00000000
C        6.14716945       4.96869795       0.00000000
C       -3.68830253       6.38832548       0.00000000
C       -2.45886830       7.09813877       0.00000000
C        8.60603710       4.96869807       0.00000000
C       -1.22943466       6.38832572       0.00000000
C       -1.22943402       4.96869677       0.00000000
C        2.45886762       4.25888403       3.35461664
C        1.22943368       3.54906979       3.35461664
C        3.68830145       3.54906968       3.35461664
C        4.91773551       4.25888372       3.35461664
C        3.68830192       2.12944201       3.35461664
C        7.37660370       4.25888386       3.35461664
C        6.14716934       3.54906938       3.35461664
C        2.45886833       1.41962716       3.35461664
C        4.91773581       1.41962758       3.35461664
C        6.14716981       2.12944171       3.35461664
C        8.60603767       3.54906975       3.35461664
C       -2.45886841       4.25888378       3.35461664
C        4.91773609       0.00000023       3.35461664
C       -2.45886901       9.93739549       3.35461664
C        7.37660357       1.41962751       3.35461664
C        8.60603792       2.12944197       3.35461664
C       -1.22943442       3.54906965       3.35461664
C       -0.00000037       4.25888371       3.35461664
C       -0.00000148       9.93739584       3.35461664
C        1.22943263      10.64720976       3.35461664
C       -1.22943424       2.12944197       3.35461664
C        9.83547202       1.41962764       3.35461664
C        9.83547204       0.00000025       3.35461664
C        2.45886622       9.93739584       3.35461664
C       -1.22943466       7.80795341       3.35461664
C       -0.00000061       8.51776744       3.35461664