157
Lattice="12.29434013 0.0 0.0 -6.14717148 10.64721006 0.0 0.0 0.0 22.0" Properties=species:S:1:pos:R:3 energy_eV=-1432.7114 mag=1.0004 pbc="T T T"
C       -0.00000041       4.25888403       0.00000000
C        2.45886747       4.25888373       0.00000000
C        0.00000002       2.83925549       0.00000000
C        1.22943389       2.12944201       0.00000000
C        2.45886755       2.83925581       0.00000000
C        4.91773566       4.25888387       0.00000000
C        1.22943425       0.70981358       0.00000000
C        3.68830178       2.12944172       0.00000000
C        7.37660369       4.25888378       0.00000000
C        4.91773602       2.83925543       0.00000000
C        2.45886805       0.00000024       0.00000000
C        3.68830174       0.70981398       0.00000000
C        6.14716990       2.12944197       0.00000000
C        7.37660357       2.83925569       0.00000000
C        9.83547172       4.25888369       0.00000000
C       -3.68830294       9.22758163       0.00000000
C       -1.22943541      10.64720976       0.00000000
C        8.60603787       2.12944196       0.00000000
C        6.14717026       0.70981352       0.00000000
C        9.83547184       2.83925568       0.00000000
C        7.37660401       0.00000026       0.00000000
C       -1.22943522       9.22758164       0.00000000
C        8.60603777       0.70981383       0.00000000
C       -2.45886863       8.51776743       0.00000000
C       11.06490602       2.12944167       0.00000000
C       -2.45886846       7.09813930       0.00000000
C        1.22943306       9.22758157       0.00000000
C       -0.00000087       8.51776733       0.00000000
C        3.68830085      10.64720971       0.00000000
C       11.06490621       0.70981356       0.00000000
C       -1.22943518       6.38832686       0.00000000
C        3.68830072       9.22758167       0.00000000
C       -0.00000069       7.09813921       0.00000000
C        6.14716883      10.64720973       0.00000000
C        2.45886743       8.51776727       0.00000000
C       -1.22943453       4.96869791       0.00000000
C        1.22943318       6.38832574       0.00000000
C        6.14716902       9.22758161       0.00000000
C        4.91773528       8.51776748       0.00000000
C        2.45886762       7.09813913       0.00000000
C        1.22943314       4.96869802       0.00000000
C        3.68830149       6.38832568       0.00000000
C        4.91773526       7.09813924       0.00000000
C       -4.91773675       8.51776730       0.00000000
C        3.68830143       4.96869796       0.00000000
C        6.14716958       6.38832549       0.00000000
C        7.37660380       7.09813876       0.00000000
C        6.14716906       4.96869806       0.00000000
C       -3.68830269       6.38832570       0.00000000
C        8.60603809       4.96869676       0.00000000
C       -0.00000041       4.25888403       3.35461664
C       -1.22943436       3.54906979       3.35461664
C        1.22943344       3.54906969       3.35461664
C        2.45886747       4.25888373       3.35461664
C        1.22943389       2.12944201       3.35461664
C        4.91773566       4.25888387       3.35461664
C        3.68830132       3.54906939       3.35461664
C        0.00000032       1.41962715       3.35461664
C        2.45886779       1.41962759       3.35461664
C        3.68830178       2.12944172       3.35461664
C        6.14716963       3.54906975       3.35461664
C        7.37660369       4.25888378       3.35461664
C        2.45886805       0.00000024       3.35461664
C       -4.91773704       9.93739549       3.35461664
C        4.91773554       1.41962751       3.35461664
C        6.14716990       2.12944197       3.35461664
C        8.60603768       3.54906965       3.35461664
C        9.83547172       4.25888369       3.35461664
C       -2.45886952       9.93739584       3.35461664
C       -1.22943541      10.64720976       3.35461664
C        8.60603787       2.12944196       3.35461664
C        7.37660399       1.41962762       3.35461664
C        7.37660401       0.00000026       3.35461664
C       -0.00000181       9.93739584       3.35461664
C       -3.68830270       7.80795340       3.35461664
C       -2.45886863       8.51776743       3.35461664
C        9.83547196       1.41962765       3.35461664
C       11.06490602       2.12944167       3.35461664
C        2.45886667       9.93739589       3.35461664
C       -1.22943492       7.80795330       3.35461664
C       -0.00000087       8.51776733       3.35461664
C        3.68830085      10.64720971       3.35461664
C       -1.22943518       6.38832686       3.35461664
C        1.22943236       7.80795403       3.35461664
C       -2.45886840       5.67851138       3.35461664
C        4.91773467       9.93739590       3.35461664
C        6.14716883      10.64720973       3.35461664
C        2.45886743       8.51776727       3.35461664
C       -0.00000123       5.67851232       3.35461664
C        1.22943318       6.38832574       3.35461664
C        4.91773528       8.51776748       3.35461664
C        3.68830136       7.80795324       3.35461664
C        2.45886667       5.67851202       3.35461664
C        3.68830149       6.38832568       3.35461664
C        6.14716921       7.80795348       3.35461664
C       -4.91773675       8.51776730       3.35461664
C        6.14716958       6.38832549       3.35461664
C        4.91773612       5.67851041       3.35461664
C       -3.68830269       6.38832570       3.35461664
C        7.37660370       5.67851158       3.35461664
C        0.09661435       4.33212266       6.79202850
C        2.55785140       4.32210709       6.61270663
C        0.09694382       2.88622762       6.80942516
C        1.34036963       2.17629055       6.68391847
C        2.55865396       2.89220543       6.62456187
C        5.01328463       4.31654783       6.58640067
C        1.32795890       0.76424305       6.65225087
C        3.78704617       2.18502763       6.60312089
C        7.46891620       4.31720677       6.61761854
C        5.01377735       2.89585124       6.59560870
C        2.55670633       0.05589758       6.63021445
C        3.78441568       0.76584669       6.62157967
C        6.24136338       2.18811603       6.61420342
C        7.46923690       2.89604576       6.62490529
C       -2.36853155       4.32273498       6.66048644
C       -3.59394473       9.28556773       6.63038442
C        5.01314085       0.05569516       6.62428774
C        8.69674298       2.18470397       6.64247687
C        6.24165590       0.76539423       6.62534046
C        9.92561694       2.89232434       6.67037968
C        7.46951042       0.05610989       6.62729734
C       -1.13594882       9.28424406       6.62814286
C        8.69876912       0.76566722       6.63848903
C       -2.36540575       8.57717398       6.62465742
C       -1.15126261       2.17634767       6.71070440
C       -2.36825172       7.15958220       6.62593807
C        1.32464851       9.28402563       6.62322909
C        0.09450805       8.57380414       6.62458012
C        9.92656074       0.05546275       6.63914695
C       11.15499267       0.76320508       6.66627169
C       -1.13942546       6.45251730       6.63952180
C        3.78240607       9.28509648       6.62500821
C        0.09420885       7.15838787       6.63030944
C        0.09409860       0.05618310       6.65792979
C        2.55385395       8.57627900       6.61528240
C       -1.15061915       5.03959417       6.68363345
C        1.32759873       6.45075657       6.61879569
C        6.24125446       9.28762438       6.64103790
C        5.01100507       8.57680418       6.62729497
C        2.55722475       7.15825227       6.60353268
C        1.33969568       5.03945673       6.65503010
C        3.78492572       6.44788118       6.59828024
C        5.01354486       7.15812405       6.61293585
C       -4.82290736       8.57755075       6.63119232
C        3.78675131       5.02844466       6.58447608
C        6.24168691       6.44850412       6.61186205
C        7.46940227       7.15816242       6.62344474
C        6.24105644       5.02538853       6.60365372
C       -3.59607616       6.44860019       6.62468755
C        8.69682707       5.02886783       6.62993325
Pt       1.51321156       4.07430790      11.99152526
Pt       0.03493601       3.65695392       8.92053590
Pt      -0.74257043       3.86640754      11.22259507
Pt       2.32964106       3.78334630       9.77403709
O        2.44651850       4.32645711      13.48368330
O        4.24952934       3.72165603       9.59916110
H        4.59979278       4.63677216       9.54329449
157
Lattice="12.29434013 0.0 0.0 -6.14717148 10.64721006 0.0 0.0 0.0 22.0" Properties=species:S:1:pos:R:3 energy_eV=-1432.2712 mag=0.999 pbc="T T T"
C       -0.00000041       4.25888403       0.00000000
C        2.45886747       4.25888373       0.00000000
C        0.00000002       2.83925549       0.00000000
C        1.22943389       2.12944201       0.00000000
C        2.45886755       2.83925581       0.00000000
C        4.91773566       4.25888387       0.00000000
C        1.22943425       0.70981358       0.00000000
C        3.68830178       2.12944172       0.00000000
C        7.37660369       4.25888378       0.00000000
C        4.91773602       2.83925543       0.00000000
C        2.45886805       0.00000024       0.00000000
C        3.68830174       0.70981398       0.00000000
C        6.14716990       2.12944197       0.00000000
C        7.37660357       2.83925569       0.00000000
C        9.83547172       4.25888369       0.00000000
C       -3.68830294       9.22758163       0.00000000
C       -1.22943541      10.64720976       0.00000000
C        8.60603787       2.12944196       0.00000000
C        6.14717026       0.70981352       0.00000000
C        9.83547184       2.83925568       0.00000000
C        7.37660401       0.00000026       0.00000000
C       -1.22943522       9.22758164       0.00000000
C        8.60603777       0.70981383       0.00000000
C       -2.45886863       8.51776743       0.00000000
C       11.06490602       2.12944167       0.00000000
C       -2.45886846       7.09813930       0.00000000
C        1.22943306       9.22758157       0.00000000
C       -0.00000087       8.51776733       0.00000000
C        3.68830085      10.64720971       0.00000000
C       11.06490621       0.70981356       0.00000000
C       -1.22943518       6.38832686       0.00000000
C        3.68830072       9.22758167       0.00000000
C       -0.00000069       7.09813921       0.00000000
C        6.14716883      10.64720973       0.00000000
C        2.45886743       8.51776727       0.00000000
C       -1.22943453       4.96869791       0.00000000
C        1.22943318       6.38832574       0.00000000
C        6.14716902       9.22758161       0.00000000
C        4.91773528       8.51776748       0.00000000
C        2.45886762       7.09813913       0.00000000
C        1.22943314       4.96869802       0.00000000
C        3.68830149       6.38832568       0.00000000
C        4.91773526       7.09813924       0.00000000
C       -4.91773675       8.51776730       0.00000000
C        3.68830143       4.96869796       0.00000000
C        6.14716958       6.38832549       0.00000000
C        7.37660380       7.09813876       0.00000000
C        6.14716906       4.96869806       0.00000000
C       -3.68830269       6.38832570       0.00000000
C        8.60603809       4.96869676       0.00000000
C       -0.00000041       4.25888403       3.35461664
C       -1.22943436       3.54906979       3.35461664
C        1.22943344       3.54906969       3.35461664
C        2.45886747       4.25888373       3.35461664
C        1.22943389       2.12944201       3.35461664
C        4.91773566       4.25888387       3.35461664
C        3.68830132       3.54906939       3.35461664
C        0.00000032       1.41962715       3.35461664
C        2.45886779       1.41962759       3.35461664
C        3.68830178       2.12944172       3.35461664
C        6.14716963       3.54906975       3.35461664
C        7.37660369       4.25888378       3.35461664
C        2.45886805       0.00000024       3.35461664
C       -4.91773704       9.93739549       3.35461664
C        4.91773554       1.41962751       3.35461664
C        6.14716990       2.12944197       3.35461664
C        8.60603768       3.54906965       3.35461664
C        9.83547172       4.25888369       3.35461664
C       -2.45886952       9.93739584       3.35461664
C       -1.22943541      10.64720976       3.35461664
C        8.60603787       2.12944196       3.35461664
C        7.37660399       1.41962762       3.35461664
C        7.37660401       0.00000026       3.35461664
C       -0.00000181       9.93739584       3.35461664
C       -3.68830270       7.80795340       3.35461664
C       -2.45886863       8.51776743       3.35461664
C        9.83547196       1.41962765       3.35461664
C       11.06490602       2.12944167       3.35461664
C        2.45886667       9.93739589       3.35461664
C       -1.22943492       7.80795330       3.35461664
C       -0.00000087       8.51776733       3.35461664
C        3.68830085      10.64720971       3.35461664
C       -1.22943518       6.38832686       3.35461664
C        1.22943236       7.80795403       3.35461664
C       -2.45886840       5.67851138       3.35461664
C        4.91773467       9.93739590       3.35461664
C        6.14716883      10.64720973       3.35461664
C        2.45886743       8.51776727       3.35461664
C       -0.00000123       5.67851232       3.35461664
C        1.22943318       6.38832574       3.35461664
C        4.91773528       8.51776748       3.35461664
C        3.68830136       7.80795324       3.35461664
C        2.45886667       5.67851202       3.35461664
C        3.68830149       6.38832568       3.35461664
C        6.14716921       7.80795348       3.35461664
C       -4.91773675       8.51776730       3.35461664
C        6.14716958       6.38832549       3.35461664
C        4.91773612       5.67851041       3.35461664
C       -3.68830269       6.38832570       3.35461664
C        7.37660370       5.67851158       3.35461664
C       -0.00883674       4.17309288       6.61137959
C        2.44293613       4.16711406       6.60485199
C       -0.00801568       2.75298669       6.62022874
C        1.21985765       2.04208845       6.61954626
C        2.44815505       2.74791570       6.61905244
C        4.90490123       4.16584872       6.70233941
C        1.22137010       0.62359684       6.62555726
C        3.67583683       2.03710965       6.64538972
C        7.37494143       4.16809437       6.66293463
C        4.90884482       2.74042746       6.67661232
C       -3.69900572      10.55982610       6.62485812
C        3.67718865       0.61960645       6.63479270
C        6.14059731       2.03781819       6.65404966
C        7.37116361       2.75046963       6.64535656
C        9.82915331       4.17098152       6.62812815
C       -3.69942002       9.13998838       6.62350761
C       -1.24135711      10.55890677       6.63102912
C        8.59806599       2.04314873       6.62660349
C        6.13799528       0.62240334       6.63299615
C        9.82916445       2.75351404       6.62704995
C        1.21898070      10.56310368       6.61629337
C       -1.24218410       9.14121733       6.62193364
C        8.59618745       0.62578934       6.61824521
C       -2.47003335       8.43030254       6.62076978
C       11.05755734       2.04512182       6.62493375
C       -2.46928374       7.01078315       6.62160579
C        1.21519000       9.14470746       6.60724465
C       -0.01322784       8.43208672       6.61170058
C        3.67887020      10.56559300       6.61892105
C       11.05739419       0.62664538       6.62648373
C       -1.24086515       6.30075792       6.61488418
C        3.67835557       9.15061435       6.62549311
C       -0.01509982       7.01306117       6.60561365
C        6.13919917      10.56530298       6.62700523
C        2.44032820       8.43784217       6.60975437
C       -1.23847411       4.88271275       6.61913344
C        1.21007483       6.30315919       6.59900791
C        6.14108472       9.14763671       6.63919511
C        4.91027808       8.44953225       6.66084114
C        2.42870129       7.02150241       6.62117117
C        1.21589424       4.88240770       6.59920789
C        3.66446349       6.30210077       6.71296098
C        4.91608281       7.01940123       6.73887439
C        7.36812343       8.43318087       6.63307589
C        3.66658815       4.86635047       6.65316151
C        6.15441227       6.30144884       6.68810914
C        7.37146319       7.01171967       6.64471440
C        6.14762213       4.88293267       6.70413939
C        8.59981452       6.30009752       6.63265189
C        8.60042672       4.88044007       6.64144298
Pt       3.38540709       6.86849648      11.20381659
Pt       4.01710085       6.83678696       8.84555635
Pt       4.90751429       4.51899179       9.12669391
Pt       4.11436583       4.57377899      11.39716619
O        2.58356189       8.27638265      11.95021658
O        3.68485090       3.83820556      13.14769576
H        3.00013925       4.36982304      13.60629706
157
Lattice="12.29434013 0.0 0.0 -6.14717148 10.64721006 0.0 0.0 0.0 22.0" Properties=species:S:1:pos:R:3 energy_eV=-1432.2614 mag=-0.9999 pbc="T T T"
C       -0.00000041       4.25888403       0.00000000
C        2.45886747       4.25888373       0.00000000
C        0.00000002       2.83925549       0.00000000
C        1.22943389       2.12944201       0.00000000
C        2.45886755       2.83925581       0.00000000
C        4.91773566       4.25888387       0.00000000
C        1.22943425       0.70981358       0.00000000
C        3.68830178       2.12944172       0.00000000
C        7.37660369       4.25888378       0.00000000
C        4.91773602       2.83925543       0.00000000
C        2.45886805       0.00000024       0.00000000
C        3.68830174       0.70981398       0.00000000
C        6.14716990       2.12944197       0.00000000
C        7.37660357       2.83925569       0.00000000
C        9.83547172       4.25888369       0.00000000
C       -3.68830294       9.22758163       0.00000000
C       -1.22943541      10.64720976       0.00000000
C        8.60603787       2.12944196       0.00000000
C        6.14717026       0.70981352       0.00000000
C        9.83547184       2.83925568       0.00000000
C        7.37660401       0.00000026       0.00000000
C       -1.22943522       9.22758164       0.00000000
C        8.60603777       0.70981383       0.00000000
C       -2.45886863       8.51776743       0.00000000
C       11.06490602       2.12944167       0.00000000
C       -2.45886846       7.09813930       0.00000000
C        1.22943306       9.22758157       0.00000000
C       -0.00000087       8.51776733       0.00000000
C        3.68830085      10.64720971       0.00000000
C       11.06490621       0.70981356       0.00000000
C       -1.22943518       6.38832686       0.00000000
C        3.68830072       9.22758167       0.00000000
C       -0.00000069       7.09813921       0.00000000
C        6.14716883      10.64720973       0.00000000
C        2.45886743       8.51776727       0.00000000
C       -1.22943453       4.96869791       0.00000000
C        1.22943318       6.38832574       0.00000000
C        6.14716902       9.22758161       0.00000000
C        4.91773528       8.51776748       0.00000000
C        2.45886762       7.09813913       0.00000000
C        1.22943314       4.96869802       0.00000000
C        3.68830149       6.38832568       0.00000000
C        4.91773526       7.09813924       0.00000000
C       -4.91773675       8.51776730       0.00000000
C        3.68830143       4.96869796       0.00000000
C        6.14716958       6.38832549       0.00000000
C        7.37660380       7.09813876       0.00000000
C        6.14716906       4.96869806       0.00000000
C       -3.68830269       6.38832570       0.00000000
C        8.60603809       4.96869676       0.00000000
C       -0.00000041       4.25888403       3.35461664
C       -1.22943436       3.54906979       3.35461664
C        1.22943344       3.54906969       3.35461664
C        2.45886747       4.25888373       3.35461664
C        1.22943389       2.12944201       3.35461664
C        4.91773566       4.25888387       3.35461664
C        3.68830132       3.54906939       3.35461664
C        0.00000032       1.41962715       3.35461664
C        2.45886779       1.41962759       3.35461664
C        3.68830178       2.12944172       3.35461664
C        6.14716963       3.54906975       3.35461664
C        7.37660369       4.25888378       3.35461664
C        2.45886805       0.00000024       3.35461664
C       -4.91773704       9.93739549       3.35461664
C        4.91773554       1.41962751       3.35461664
C        6.14716990       2.12944197       3.35461664
C        8.60603768       3.54906965       3.35461664
C        9.83547172       4.25888369       3.35461664
C       -2.45886952       9.93739584       3.35461664
C       -1.22943541      10.64720976       3.35461664
C        8.60603787       2.12944196       3.35461664
C        7.37660399       1.41962762       3.35461664
C        7.37660401       0.00000026       3.35461664
C       -0.00000181       9.93739584       3.35461664
C       -3.68830270       7.80795340       3.35461664
C       -2.45886863       8.51776743       3.35461664
C        9.83547196       1.41962765       3.35461664
C       11.06490602       2.12944167       3.35461664
C        2.45886667       9.93739589       3.35461664
C       -1.22943492       7.80795330       3.35461664
C       -0.00000087       8.51776733       3.35461664
C        3.68830085      10.64720971       3.35461664
C       -1.22943518       6.38832686       3.35461664
C        1.22943236       7.80795403       3.35461664
C       -2.45886840       5.67851138       3.35461664
C        4.91773467       9.93739590       3.35461664
C        6.14716883      10.64720973       3.35461664
C        2.45886743       8.51776727       3.35461664
C       -0.00000123       5.67851232       3.35461664
C        1.22943318       6.38832574       3.35461664
C        4.91773528       8.51776748       3.35461664
C        3.68830136       7.80795324       3.35461664
C        2.45886667       5.67851202       3.35461664
C        3.68830149       6.38832568       3.35461664
C        6.14716921       7.80795348       3.35461664
C       -4.91773675       8.51776730       3.35461664
C        6.14716958       6.38832549       3.35461664
C        4.91773612       5.67851041       3.35461664
C       -3.68830269       6.38832570       3.35461664
C        7.37660370       5.67851158       3.35461664
C        0.02836723       4.30141530       6.73450347
C        2.52719217       4.32312717       6.84794339
C        0.03601403       2.88810408       6.64894520
C        1.25803260       2.16866503       6.69756206
C        2.49486641       2.87476342       6.89165460
C        4.97171663       4.31454255       6.66155074
C        1.26735615       0.76209575       6.62722627
C        3.74923925       2.17482168       6.89458172
C        7.42344278       4.31491401       6.61007255
C        4.97969853       2.90354316       6.73660266
C        2.50610305       0.05000949       6.65546589
C        3.73233313       0.74538709       6.73965214
C        6.19477156       2.18893542       6.66942237
C        7.42196782       2.89620320       6.62047498
C       -2.41729899       4.30978343       6.61844990
C       -3.64239616       9.28025778       6.61545057
C        4.96242199       0.05335663       6.69372003
C        8.64997122       2.18258410       6.60167477
C        6.19022410       0.76592198       6.67961286
C        9.87717592       2.89244871       6.60060864
C        7.41901507       0.05903371       6.64302503
C       -1.19038546       9.28508781       6.68052308
C        8.64943030       0.76745477       6.60214487
C       -2.41458347       8.57216897       6.64711373
C       -1.19052638       2.18015541       6.59133365
C       -2.41889429       7.15008747       6.64830730
C        1.27486894       9.29030787       6.67379577
C        0.04177258       8.59055137       6.72565908
C        9.87984041       0.05544902       6.57869460
C       11.10597065       0.76370427       6.57334035
C       -1.20154465       6.43879868       6.71438388
C        3.73527210       9.28758884       6.58500096
C        0.02278551       7.16691916       6.81542770
C        0.04230643       0.05312134       6.57408659
C        2.51118835       8.57966352       6.63547525
C       -1.19088296       5.01767543       6.67646133
C        1.28012705       6.47084756       6.90972937
C        6.19193101       9.28286523       6.57165410
C        4.96598072       8.57484592       6.57650136
C        2.52181968       7.17015371       6.69671697
C        1.26510748       5.01198862       6.91751387
C        3.73942194       6.45148764       6.63810968
C        4.96696810       7.15865567       6.58773113
C       -4.87130068       8.57135502       6.58704624
C        3.74722127       5.03214318       6.69275239
C        6.19486033       6.44531295       6.58823425
C        7.42096275       7.15328729       6.59139636
C        6.19723890       5.02575961       6.60807240
C       -3.64483358       6.43973849       6.61331790
C        8.65049712       5.02408404       6.61072468
Pt       0.71858400       6.92803111       8.97906739
Pt       1.60243085       5.92045501      11.04638742
Pt       1.90619558       4.61362719       9.03113649
Pt       3.07074369       2.37202254       8.98287823
O        1.71029640       6.15811305      12.79744841
O        3.19043866       1.90616396      10.86289955
H        3.79377374       2.52760119      11.31800706
157
Lattice="12.29434013 0.0 0.0 -6.14717148 10.64721006 0.0 0.0 0.0 22.0" Properties=species:S:1:pos:R:3 energy_eV=-1431.8707 mag=1.0 pbc="T T T"
C       -0.00000041       4.25888403       0.00000000
C        2.45886747       4.25888373       0.00000000
C        0.00000002       2.83925549       0.00000000
C        1.22943389       2.12944201       0.00000000
C        2.45886755       2.83925581       0.00000000
C        4.91773566       4.25888387       0.00000000
C        1.22943425       0.70981358       0.00000000
C        3.68830178       2.12944172       0.00000000
C        7.37660369       4.25888378       0.00000000
C        4.91773602       2.83925543       0.00000000
C        2.45886805       0.00000024       0.00000000
C        3.68830174       0.70981398       0.00000000
C        6.14716990       2.12944197       0.00000000
C        7.37660357       2.83925569       0.00000000
C        9.83547172       4.25888369       0.00000000
C       -3.68830294       9.22758163       0.00000000
C       -1.22943541      10.64720976       0.00000000
C        8.60603787       2.12944196       0.00000000
C        6.14717026       0.70981352       0.00000000
C        9.83547184       2.83925568       0.00000000
C        7.37660401       0.00000026       0.00000000
C       -1.22943522       9.22758164       0.00000000
C        8.60603777       0.70981383       0.00000000
C       -2.45886863       8.51776743       0.00000000
C       11.06490602       2.12944167       0.00000000
C       -2.45886846       7.09813930       0.00000000
C        1.22943306       9.22758157       0.00000000
C       -0.00000087       8.51776733       0.00000000
C        3.68830085      10.64720971       0.00000000
C       11.06490621       0.70981356       0.00000000
C       -1.22943518       6.38832686       0.00000000
C        3.68830072       9.22758167       0.00000000
C       -0.00000069       7.09813921       0.00000000
C        6.14716883      10.64720973       0.00000000
C        2.45886743       8.51776727       0.00000000
C       -1.22943453       4.96869791       0.00000000
C        1.22943318       6.38832574       0.00000000
C        6.14716902       9.22758161       0.00000000
C        4.91773528       8.51776748       0.00000000
C        2.45886762       7.09813913       0.00000000
C        1.22943314       4.96869802       0.00000000
C        3.68830149       6.38832568       0.00000000
C        4.91773526       7.09813924       0.00000000
C       -4.91773675       8.51776730       0.00000000
C        3.68830143       4.96869796       0.00000000
C        6.14716958       6.38832549       0.00000000
C        7.37660380       7.09813876       0.00000000
C        6.14716906       4.96869806       0.00000000
C       -3.68830269       6.38832570       0.00000000
C        8.60603809       4.96869676       0.00000000
C       -0.00000041       4.25888403       3.35461664
C       -1.22943436       3.54906979       3.35461664
C        1.22943344       3.54906969       3.35461664
C        2.45886747       4.25888373       3.35461664
C        1.22943389       2.12944201       3.35461664
C        4.91773566       4.25888387       3.35461664
C        3.68830132       3.54906939       3.35461664
C        0.00000032       1.41962715       3.35461664
C        2.45886779       1.41962759       3.35461664
C        3.68830178       2.12944172       3.35461664
C        6.14716963       3.54906975       3.35461664
C        7.37660369       4.25888378       3.35461664
C        2.45886805       0.00000024       3.35461664
C       -4.91773704       9.93739549       3.35461664
C        4.91773554       1.41962751       3.35461664
C        6.14716990       2.12944197       3.35461664
C        8.60603768       3.54906965       3.35461664
C        9.83547172       4.25888369       3.35461664
C       -2.45886952       9.93739584       3.35461664
C       -1.22943541      10.64720976       3.35461664
C        8.60603787       2.12944196       3.35461664
C        7.37660399       1.41962762       3.35461664
C        7.37660401       0.00000026       3.35461664