155
Lattice="12.29434013 0.0 0.0 -6.14717148 10.64721006 0.0 0.0 0.0 22.0" Properties=species:S:1:pos:R:3 energy_eV=-1421.7272 mag=0.0 pbc="T T T"
C        3.68830054      10.64720991       0.00000000
C        2.45886661       8.51776818       0.00000000
C        8.60603735       0.70981394       0.00000000
C        1.22943252      10.64720991       0.00000000
C        1.22943266       9.22758225       0.00000000
C        1.22943292       6.38832597       0.00000000
C        6.14716944       0.70981394       0.00000000
C       -0.00000141       8.51776818       0.00000000
C       -0.00000088       4.25888400       0.00000000
C       -0.00000162       7.09814005       0.00000000
C       -1.22943523      10.64720991       0.00000000
C       -1.22943516       9.22758225       0.00000000
C       -1.22943496       6.38832597       0.00000000
C       -1.22943488       4.96869830       0.00000000
C       11.06490545       2.12944202       0.00000000
C        3.68830141       0.70981394       0.00000000
C       -2.45886943       8.51776819       0.00000000
C        9.83547147       4.25888400       0.00000000
C       -2.45886954       7.09814005       0.00000000
C        9.83547138       2.83925608       0.00000000
C       -3.68830263       6.38832597       0.00000000
C       -3.68830363       9.22758226       0.00000000
C        8.60603739       4.96869830       0.00000000
C       -3.68830424      10.64720992       0.00000000
C        8.60603742       2.12944201       0.00000000
C        1.22943304       0.70981394       0.00000000
C        7.37660258       7.09814005       0.00000000
C        7.37660220       8.51776819       0.00000000
C        7.37660309       4.25888399       0.00000000
C        7.37660323       2.83925608       0.00000000
C       -6.14717060      10.64720992       0.00000000
C        6.14716913       4.96869830       0.00000000
C        6.14716800       9.22758224       0.00000000
C        6.14716941       2.12944201       0.00000000
C        6.14716828       6.38832596       0.00000000
C       11.06490585       0.70981393       0.00000000
C        4.91773464       8.51776818       0.00000000
C        4.91773520       2.83925608       0.00000000
C        4.91773482       4.25888399       0.00000000
C        4.91773408       7.09814004       0.00000000
C        3.68830092       9.22758225       0.00000000
C        3.68830073       6.38832596       0.00000000
C        3.68830063       4.96869829       0.00000000
C        3.68830090       2.12944201       0.00000000
C        2.45886700       7.09814004       0.00000000
C        2.45886680       4.25888399       0.00000000
C        2.45886623       2.83925608       0.00000000
C        1.22943355       4.96869830       0.00000000
C        1.22943335       2.12944201       0.00000000
C       -0.00000180       2.83925608       0.00000000
C        3.68830054      10.64720991       3.35461664
C        9.83547165       1.41962801       3.35461664
C        2.45886648       9.93739632       3.35461664
C        2.45886661       8.51776818       3.35461664
C        1.22943252      10.64720991       3.35461664
C        1.22943292       6.38832597       3.35461664
C        1.22943256       7.80795459       3.35461664
C        7.37660290       1.41962801       3.35461664
C       -0.00000166       9.93739632       3.35461664
C       -0.00000141       8.51776818       3.35461664
C       -0.00000101       5.67851213       3.35461664
C       -0.00000088       4.25888400       3.35461664
C       -1.22943523      10.64720991       3.35461664
C        4.91773520       1.41962801       3.35461664
C       -1.22943533       7.80795459       3.35461664
C       -1.22943496       6.38832597       3.35461664
C       -1.22943483       3.54907016       3.35461664
C       11.06490545       2.12944202       3.35461664
C       -2.45886945       9.93739632       3.35461664
C       -2.45886943       8.51776819       3.35461664
C        9.83547147       4.25888400       3.35461664
C       -2.45886916       5.67851214       3.35461664
C       -3.68830263       6.38832597       3.35461664
C       -3.68830302       7.80795459       3.35461664
C        2.45886710       1.41962800       3.35461664
C       -3.68830424      10.64720992       3.35461664
C        8.60603729       3.54907015       3.35461664
C        8.60603742       2.12944201       3.35461664
C        7.37660319       5.67851213       3.35461664
C       -4.91773807       9.93739632       3.35461664
C        7.37660220       8.51776819       3.35461664
C        7.37660309       4.25888399       3.35461664
C       -6.14717060      10.64720992       3.35461664
C        6.14716934       7.80795458       3.35461664
C       -0.00000094       1.41962801       3.35461664
C        6.14716950       3.54907015       3.35461664
C        6.14716941       2.12944201       3.35461664
C        6.14716828       6.38832596       3.35461664
C        4.91773522       9.93739632       3.35461664
C        4.91773464       8.51776818       3.35461664
C        4.91773482       4.25888399       3.35461664
C        4.91773445       5.67851212       3.35461664
C        3.68830130       7.80795458       3.35461664
C        3.68830073       6.38832596       3.35461664
C        3.68830101       3.54907015       3.35461664
C        3.68830090       2.12944201       3.35461664
C        2.45886680       4.25888399       3.35461664
C        2.45886547       5.67851213       3.35461664
C        1.22943335       2.12944201       3.35461664
C        1.22943297       3.54906992       3.35461664
C        9.84513969       0.08535715       6.64193831
C        2.46114331       8.61053884       6.63114290
C        8.61481536       0.79512762       6.62322200
C        7.38557498       0.08669250       6.61543961
C        1.23516657       9.31643246       6.61657058
C        1.23123027       6.47854713       6.60616744
C        6.15872607       0.79421877       6.60965360
C        0.00552582       8.60491896       6.60868334
C        0.00027821       4.34761807       6.61028378
C        0.00410520       7.18698432       6.59822580
C        4.92966470       0.08425868       6.61527604
C       -1.22065398       9.31284657       6.61418007
C       -1.22455666       6.47630589       6.59744869
C       -1.22529112       5.05593120       6.59742282
C       -1.22723896       2.21789038       6.64633284
C        3.70299918       0.79312117       6.64544599
C       -2.45087696       8.60460853       6.62106469
C       -2.45268179       4.34576378       6.60712140
C       -2.45077318       7.18484879       6.61171455
C        9.84124892       2.92538836       6.61867483
C       -3.67955035       6.47397763       6.61247868
C       -3.67823289       9.31379781       6.64635562
C        8.61503018       5.05417208       6.60220417
C        2.46996246       0.08232207       6.67437598
C        8.61519979       2.21308438       6.61270639
C        1.23934804       0.78344741       6.74118692
C        7.38678302       7.18428041       6.63416537
C       -4.90848037       8.60408761       6.65519707
C        7.38821019       4.34126275       6.58853476
C        7.38767072       2.92155059       6.59598060
C        0.00435505       0.08445948       6.69884264
C        6.16067130       5.04759422       6.59903977
C        6.15731158       9.31539979       6.67294869
C        6.16195706       2.21140649       6.59895242
C        6.16088964       6.47395699       6.64335446
C       11.07318732       0.79503568       6.66594134
C        4.92895906       8.61070618       6.67015403
C        4.93529003       2.92134149       6.61865545
C        4.94319270       4.33388967       6.62812734
C        4.94139948       7.19340256       6.69376124
C        3.69718080       9.31510376       6.64839698
C        3.69138635       6.49196019       6.72904990
C        3.70117868       5.05312161       6.75336374
C        3.71018551       2.20737720       6.67929229
C        2.45008343       7.19768805       6.65048260
C        2.45401958       4.35315923       6.68656245
C        2.47644848       2.92871569       6.76602420
C        1.23505703       5.05671382       6.61587861
C        1.22479609       2.21718093       6.78490235
C       -0.01103010       2.93519350       6.66861350
Pt       2.61092066       4.27870474      10.33823574
Pt       1.11675184       2.61313435      11.26925735
Pt       1.80386769       2.41451110       8.88399132
Pt       3.84625448       5.90878884       8.80677028
O        4.07100422       5.39871073      10.68484406
155
Lattice="12.29434013 0.0 0.0 -6.14717148 10.64721006 0.0 0.0 0.0 22.0" Properties=species:S:1:pos:R:3 energy_eV=-1421.6339 mag=1.9957 pbc="T T T"
C        3.68830054      10.64720991       0.00000000
C        2.45886661       8.51776818       0.00000000
C        8.60603735       0.70981394       0.00000000
C        1.22943252      10.64720991       0.00000000
C        1.22943266       9.22758225       0.00000000
C        1.22943292       6.38832597       0.00000000
C        6.14716944       0.70981394       0.00000000
C       -0.00000141       8.51776818       0.00000000
C       -0.00000088       4.25888400       0.00000000
C       -0.00000162       7.09814005       0.00000000
C       -1.22943523      10.64720991       0.00000000
C       -1.22943516       9.22758225       0.00000000
C       -1.22943496       6.38832597       0.00000000
C       -1.22943488       4.96869830       0.00000000
C       11.06490545       2.12944202       0.00000000
C        3.68830141       0.70981394       0.00000000
C       -2.45886943       8.51776819       0.00000000
C        9.83547147       4.25888400       0.00000000
C       -2.45886954       7.09814005       0.00000000
C        9.83547138       2.83925608       0.00000000
C       -3.68830263       6.38832597       0.00000000
C       -3.68830363       9.22758226       0.00000000
C        8.60603739       4.96869830       0.00000000
C       -3.68830424      10.64720992       0.00000000
C        8.60603742       2.12944201       0.00000000
C        1.22943304       0.70981394       0.00000000
C        7.37660258       7.09814005       0.00000000
C        7.37660220       8.51776819       0.00000000
C        7.37660309       4.25888399       0.00000000
C        7.37660323       2.83925608       0.00000000
C       -6.14717060      10.64720992       0.00000000
C        6.14716913       4.96869830       0.00000000
C        6.14716800       9.22758224       0.00000000
C        6.14716941       2.12944201       0.00000000
C        6.14716828       6.38832596       0.00000000
C       11.06490585       0.70981393       0.00000000
C        4.91773464       8.51776818       0.00000000
C        4.91773520       2.83925608       0.00000000
C        4.91773482       4.25888399       0.00000000
C        4.91773408       7.09814004       0.00000000
C        3.68830092       9.22758225       0.00000000
C        3.68830073       6.38832596       0.00000000
C        3.68830063       4.96869829       0.00000000
C        3.68830090       2.12944201       0.00000000
C        2.45886700       7.09814004       0.00000000
C        2.45886680       4.25888399       0.00000000
C        2.45886623       2.83925608       0.00000000
C        1.22943355       4.96869830       0.00000000
C        1.22943335       2.12944201       0.00000000
C       -0.00000180       2.83925608       0.00000000
C        3.68830054      10.64720991       3.35461664
C        9.83547165       1.41962801       3.35461664
C        2.45886648       9.93739632       3.35461664
C        2.45886661       8.51776818       3.35461664
C        1.22943252      10.64720991       3.35461664
C        1.22943292       6.38832597       3.35461664
C        1.22943256       7.80795459       3.35461664
C        7.37660290       1.41962801       3.35461664
C       -0.00000166       9.93739632       3.35461664
C       -0.00000141       8.51776818       3.35461664
C       -0.00000101       5.67851213       3.35461664
C       -0.00000088       4.25888400       3.35461664
C       -1.22943523      10.64720991       3.35461664
C        4.91773520       1.41962801       3.35461664
C       -1.22943533       7.80795459       3.35461664
C       -1.22943496       6.38832597       3.35461664
C       -1.22943483       3.54907016       3.35461664
C       11.06490545       2.12944202       3.35461664
C       -2.45886945       9.93739632       3.35461664
C       -2.45886943       8.51776819       3.35461664
C        9.83547147       4.25888400       3.35461664
C       -2.45886916       5.67851214       3.35461664
C       -3.68830263       6.38832597       3.35461664
C       -3.68830302       7.80795459       3.35461664
C        2.45886710       1.41962800       3.35461664
C       -3.68830424      10.64720992       3.35461664
C        8.60603729       3.54907015       3.35461664
C        8.60603742       2.12944201       3.35461664
C        7.37660319       5.67851213       3.35461664
C       -4.91773807       9.93739632       3.35461664
C        7.37660220       8.51776819       3.35461664
C        7.37660309       4.25888399       3.35461664
C       -6.14717060      10.64720992       3.35461664
C        6.14716934       7.80795458       3.35461664
C       -0.00000094       1.41962801       3.35461664
C        6.14716950       3.54907015       3.35461664
C        6.14716941       2.12944201       3.35461664
C        6.14716828       6.38832596       3.35461664
C        4.91773522       9.93739632       3.35461664
C        4.91773464       8.51776818       3.35461664
C        4.91773482       4.25888399       3.35461664
C        4.91773445       5.67851212       3.35461664
C        3.68830130       7.80795458       3.35461664
C        3.68830073       6.38832596       3.35461664
C        3.68830101       3.54907015       3.35461664
C        3.68830090       2.12944201       3.35461664
C        2.45886680       4.25888399       3.35461664
C        2.45886547       5.67851213       3.35461664
C        1.22943335       2.12944201       3.35461664
C        1.22943297       3.54906992       3.35461664
C        9.77405069       0.00956542       6.63925555
C        2.39749695       8.52776818       6.62283629
C        8.54630295       0.71742915       6.62216985
C        7.31813841       0.00882088       6.60357086
C        1.16870636       9.23790719       6.61561577
C        1.16270142       6.40536837       6.64640659
C        6.08943056       0.71598540       6.57774315
C       -0.06185992       8.52934382       6.62084661
C       -0.06543998       4.27447318       6.69111114
C       -0.06543384       7.11223767       6.64414685
C        4.86008031       0.00713048       6.58555345
C       -1.29053412       9.23745914       6.61580314
C       -1.29255107       6.40161856       6.67551895
C       -1.29172382       4.98334483       6.68415807
C       11.00462315       2.13929485       6.67226755
C        3.63111732       0.71443584       6.60641329
C       -2.51993052       8.53065213       6.65588644
C        9.77602078       4.27046260       6.69203352
C       -2.52221708       7.11110589       6.69194194
C        9.77543296       2.85069773       6.66909899
C        8.54534722       6.40330126       6.73010093
C       -3.74907546       9.24156907       6.66136240
C        8.54863783       4.97904792       6.72869208
C        2.39777798       0.01041300       6.64690596
C        8.54826057       2.13977251       6.63773084
C        1.16739575       0.71926067       6.68053054
C        7.31704506       7.11618276       6.72551190
C        7.31527780       8.53339495       6.68375225
C        7.32946626       4.26363219       6.74138574
C        7.32352089       2.84853394       6.64595805
C       12.23271880       0.01177107       6.66835026
C        6.09542818       4.98762864       6.82382242
C        6.08694844       9.24114881       6.66634257
C        6.09116985       2.13305313       6.58371251
C        6.08741577       6.41738575       6.74224691
C       11.00456733       0.72048688       6.66180112
C        4.85812323       8.53241744       6.64584236
C        4.86370614       2.82862547       6.60585343
C        4.85458780       4.26663991       6.74528330
C        4.86269224       7.11683331       6.65570033
C        3.62836112       9.23986870       6.63121833
C        3.62858208       6.40629873       6.62033829
C        3.62532495       5.00408256       6.65020077
C        3.64012990       2.12544628       6.63481818
C        2.39458241       7.11213511       6.62265465
C        2.39152214       4.28670360       6.77306052
C        2.40260566       2.84059440       6.79455626
C        1.15114372       4.99140921       6.69872407
C        1.15957358       2.13455529       6.73007053
C       -0.06314293       2.84941997       6.70053101
Pt       5.18581401       4.34128460       8.91683478
Pt       3.45129669       5.83020613      10.19808082
Pt       2.70614929       3.63334908       8.91383023
Pt       4.08893665       3.55857217      11.06088555
O        2.85985614       7.46354154      10.50124835
155
Lattice="12.29434013 0.0 0.0 -6.14717148 10.64721006 0.0 0.0 0.0 22.0" Properties=species:S:1:pos:R:3 energy_eV=-1421.5771 mag=-0.005 pbc="T T T"
C        3.68830054      10.64720991       0.00000000
C        2.45886661       8.51776818       0.00000000
C        8.60603735       0.70981394       0.00000000
C        1.22943252      10.64720991       0.00000000
C        1.22943266       9.22758225       0.00000000
C        1.22943292       6.38832597       0.00000000
C        6.14716944       0.70981394       0.00000000
C       -0.00000141       8.51776818       0.00000000
C       -0.00000088       4.25888400       0.00000000
C       -0.00000162       7.09814005       0.00000000
C       -1.22943523      10.64720991       0.00000000
C       -1.22943516       9.22758225       0.00000000
C       -1.22943496       6.38832597       0.00000000
C       -1.22943488       4.96869830       0.00000000
C       11.06490545       2.12944202       0.00000000
C        3.68830141       0.70981394       0.00000000
C       -2.45886943       8.51776819       0.00000000
C        9.83547147       4.25888400       0.00000000
C       -2.45886954       7.09814005       0.00000000
C        9.83547138       2.83925608       0.00000000
C       -3.68830263       6.38832597       0.00000000
C       -3.68830363       9.22758226       0.00000000
C        8.60603739       4.96869830       0.00000000
C       -3.68830424      10.64720992       0.00000000
C        8.60603742       2.12944201       0.00000000
C        1.22943304       0.70981394       0.00000000
C        7.37660258       7.09814005       0.00000000
C        7.37660220       8.51776819       0.00000000
C        7.37660309       4.25888399       0.00000000
C        7.37660323       2.83925608       0.00000000
C       -6.14717060      10.64720992       0.00000000
C        6.14716913       4.96869830       0.00000000
C        6.14716800       9.22758224       0.00000000
C        6.14716941       2.12944201       0.00000000
C        6.14716828       6.38832596       0.00000000
C       11.06490585       0.70981393       0.00000000
C        4.91773464       8.51776818       0.00000000
C        4.91773520       2.83925608       0.00000000
C        4.91773482       4.25888399       0.00000000
C        4.91773408       7.09814004       0.00000000
C        3.68830092       9.22758225       0.00000000
C        3.68830073       6.38832596       0.00000000
C        3.68830063       4.96869829       0.00000000
C        3.68830090       2.12944201       0.00000000
C        2.45886700       7.09814004       0.00000000
C        2.45886680       4.25888399       0.00000000
C        2.45886623       2.83925608       0.00000000
C        1.22943355       4.96869830       0.00000000
C        1.22943335       2.12944201       0.00000000
C       -0.00000180       2.83925608       0.00000000
C        3.68830054      10.64720991       3.35461664
C        9.83547165       1.41962801       3.35461664
C        2.45886648       9.93739632       3.35461664
C        2.45886661       8.51776818       3.35461664
C        1.22943252      10.64720991       3.35461664
C        1.22943292       6.38832597       3.35461664
C        1.22943256       7.80795459       3.35461664
C        7.37660290       1.41962801       3.35461664
C       -0.00000166       9.93739632       3.35461664
C       -0.00000141       8.51776818       3.35461664
C       -0.00000101       5.67851213       3.35461664
C       -0.00000088       4.25888400       3.35461664
C       -1.22943523      10.64720991       3.35461664
C        4.91773520       1.41962801       3.35461664
C       -1.22943533       7.80795459       3.35461664
C       -1.22943496       6.38832597       3.35461664
C       -1.22943483       3.54907016       3.35461664
C       11.06490545       2.12944202       3.35461664
C       -2.45886945       9.93739632       3.35461664
C       -2.45886943       8.51776819       3.35461664
C        9.83547147       4.25888400       3.35461664
C       -2.45886916       5.67851214       3.35461664
C       -3.68830263       6.38832597       3.35461664
C       -3.68830302       7.80795459       3.35461664
C        2.45886710       1.41962800       3.35461664
C       -3.68830424      10.64720992       3.35461664
C        8.60603729       3.54907015       3.35461664
C        8.60603742       2.12944201       3.35461664
C        7.37660319       5.67851213       3.35461664
C       -4.91773807       9.93739632       3.35461664
C        7.37660220       8.51776819       3.35461664
C        7.37660309       4.25888399       3.35461664
C       -6.14717060      10.64720992       3.35461664
C        6.14716934       7.80795458       3.35461664
C       -0.00000094       1.41962801       3.35461664
C        6.14716950       3.54907015       3.35461664
C        6.14716941       2.12944201       3.35461664
C        6.14716828       6.38832596       3.35461664
C        4.91773522       9.93739632       3.35461664
C        4.91773464       8.51776818       3.35461664
C        4.91773482       4.25888399       3.35461664
C        4.91773445       5.67851212       3.35461664
C        3.68830130       7.80795458       3.35461664
C        3.68830073       6.38832596       3.35461664
C        3.68830101       3.54907015       3.35461664
C        3.68830090       2.12944201       3.35461664
C        2.45886680       4.25888399       3.35461664
C        2.45886547       5.67851213       3.35461664
C        1.22943335       2.12944201       3.35461664
C        1.22943297       3.54906992       3.35461664
C        9.76590550       0.07128399       6.63011981
C        2.38596977       8.59757179       6.64828128
C        8.53907625       0.78435487       6.64524950
C        7.30690624       0.07583096       6.66118317
C        1.15697065       9.30392855       6.64593598
C        1.15245239       6.46325767       6.62250255
C        6.08344420       0.78314848       6.69581580
C       -0.06870871       8.59354017       6.63049888
C       -0.07417475       4.32954687       6.60964865
C       -0.07103615       7.17330995       6.60442640
C        4.85099758       0.07131509       6.72335428
C       -1.29686826       9.30138806       6.65942886
C       -1.29661339       6.46223988       6.59641626
C       -1.29709425       5.04113293       6.59836216
C       10.99221023       2.19918859       6.62577698
C        3.62114908       0.76787386       6.78968084
C       -2.52488986       8.59116178       6.63444025
C        9.76927771       4.33112356       6.60200453
C       -2.52382219       7.17088394       6.59959427
C        9.76731204       2.91282157       6.61635293
C        8.54494863       6.46064184       6.59070653
C       -3.75239198       9.30013290       6.64922792
C        8.54429230       5.04332166       6.59476378
C        2.39496676       0.06979927       6.71015865
C        8.54184361       2.20156123       6.63183349
C        1.15631309       0.77854000       6.67806974
C        7.31360689       7.17279769       6.59318532
C        7.31221485       8.59233460       6.61445543
C        7.31850773       4.33019021       6.60098312
C        7.31671748       2.91266119       6.63380487
C       12.22442290       0.07209324       6.64351993
C        6.09259602       5.03841771       6.60510932
C        6.08360826       9.30190856       6.62739663
C        6.09083255       2.20370218       6.68511028
C        6.09132273       6.46330388       6.60700980
C       10.99539630       0.78052537       6.63381618
C        4.85631586       8.59532336       6.63535366
C        4.87403978       2.91887044       6.73546130
C        4.87966073       4.32367288       6.68141990
C        4.86963522       7.18338874       6.66616198
C        3.61966486       9.30183092       6.63668846
C        3.62432708       6.48078444       6.75768120
C        3.62980131       5.04458742       6.80377467
C        3.62745245       2.20106368       6.88297207
C        2.37538188       7.18331545       6.68198626
C        2.37219974       4.33361919       6.73210123
C        2.37160055       2.90599454       6.78022813
C        1.14906065       5.04302895       6.63179668
C        1.13920596       2.18817272       6.68655233
C       -0.07750917       2.90739878       6.63260702
Pt       2.95257631       1.71604667      10.98288027
Pt       2.93537509       3.11563337       8.86480227
Pt       3.05939083       4.10714444      11.17995118
Pt       3.53607820       5.83392742       8.81860344
O        3.34600269       5.92363601      10.75713387
155
Lattice="12.29434013 0.0 0.0 -6.14717148 10.64721006 0.0 0.0 0.0 22.0" Properties=species:S:1:pos:R:3 energy_eV=-1421.5522 mag=1.2909 pbc="T T T"
C        3.68830054      10.64720991       0.00000000
C        2.45886661       8.51776818       0.00000000
C        8.60603735       0.70981394       0.00000000
C        1.22943252      10.64720991       0.00000000
C        1.22943266       9.22758225       0.00000000
C        1.22943292       6.38832597       0.00000000
C        6.14716944       0.70981394       0.00000000
C       -0.00000141       8.51776818       0.00000000
C       -0.00000088       4.25888400       0.00000000
C       -0.00000162       7.09814005       0.00000000
C       -1.22943523      10.64720991       0.00000000
C       -1.22943516       9.22758225       0.00000000
C       -1.22943496       6.38832597       0.00000000
C       -1.22943488       4.96869830       0.00000000
C       11.06490545       2.12944202       0.00000000
C        3.68830141       0.70981394       0.00000000
C       -2.45886943       8.51776819       0.00000000
C        9.83547147       4.25888400       0.00000000
C       -2.45886954       7.09814005       0.00000000
C        9.83547138       2.83925608       0.00000000
C       -3.68830263       6.38832597       0.00000000
C       -3.68830363       9.22758226       0.00000000
C        8.60603739       4.96869830       0.00000000
C       -3.68830424      10.64720992       0.00000000
C        8.60603742       2.12944201       0.00000000
C        1.22943304       0.70981394       0.00000000
C        7.37660258       7.09814005       0.00000000
C        7.37660220       8.51776819       0.00000000
C        7.37660309       4.25888399       0.00000000
C        7.37660323       2.83925608       0.00000000
C       -6.14717060      10.64720992       0.00000000
C        6.14716913       4.96869830       0.00000000
C        6.14716800       9.22758224       0.00000000
C        6.14716941       2.12944201       0.00000000
C        6.14716828       6.38832596       0.00000000
C       11.06490585       0.70981393       0.00000000
C        4.91773464       8.51776818       0.00000000
C        4.91773520       2.83925608       0.00000000
C        4.91773482       4.25888399       0.00000000
C        4.91773408       7.09814004       0.00000000
C        3.68830092       9.22758225       0.00000000
C        3.68830073       6.38832596       0.00000000
C        3.68830063       4.96869829       0.00000000
C        3.68830090       2.12944201       0.00000000
C        2.45886700       7.09814004       0.00000000
C        2.45886680       4.25888399       0.00000000
C        2.45886623       2.83925608       0.00000000
C        1.22943355       4.96869830       0.00000000
C        1.22943335       2.12944201       0.00000000
C       -0.00000180       2.83925608       0.00000000
C        3.68830054      10.64720991       3.35461664
C        9.83547165       1.41962801       3.35461664
C        2.45886648       9.93739632       3.35461664
C        2.45886661       8.51776818       3.35461664
C        1.22943252      10.64720991       3.35461664
C        1.22943292       6.38832597       3.35461664
C        1.22943256       7.80795459       3.35461664
C        7.37660290       1.41962801       3.35461664
C       -0.00000166       9.93739632       3.35461664
C       -0.00000141       8.51776818       3.35461664
C       -0.00000101       5.67851213       3.35461664
C       -0.00000088       4.25888400       3.35461664
C       -1.22943523      10.64720991       3.35461664
C        4.91773520       1.41962801       3.35461664
C       -1.22943533       7.80795459       3.35461664
C       -1.22943496       6.38832597       3.35461664
C       -1.22943483       3.54907016       3.35461664
C       11.06490545       2.12944202       3.35461664
C       -2.45886945       9.93739632       3.35461664
C       -2.45886943       8.51776819       3.35461664
C        9.83547147       4.25888400       3.35461664
C       -2.45886916       5.67851214       3.35461664
C       -3.68830263       6.38832597       3.35461664
C       -3.68830302       7.80795459       3.35461664
C        2.45886710       1.41962800       3.35461664
C       -3.68830424      10.64720992       3.35461664
C        8.60603729       3.54907015       3.35461664
C        8.60603742       2.12944201       3.35461664
C        7.37660319       5.67851213       3.35461664