154
Lattice="12.29434013 0.0 0.0 -6.14717148 10.64721006 0.0 0.0 0.0 22.0" Properties=species:S:1:pos:R:3 energy_eV=-1405.5065 mag=-0.0 pbc="T T T"
C       -3.68830281       6.38832617       0.00000000
C       -2.45886941       8.51776821       0.00000000
C        7.37660287       7.09814063       0.00000000
C       -4.91773710       8.51776817       0.00000000
C       -3.68830350       9.22758206       0.00000000
C        4.91773600       0.00000023       0.00000000
C        6.14716864       9.22758255       0.00000000
C        2.45886777       0.00000016       0.00000000
C        6.14716966       2.12944229       0.00000000
C        3.68830160       0.70981459       0.00000000
C       -6.14717128      10.64720996       0.00000000
C        1.22943379       0.70981384       0.00000000
C        3.68830178       2.12944213       0.00000000
C        4.91773534       2.83925605       0.00000000
C        7.37660333       4.25888436       0.00000000
C       11.06490581       0.70981450       0.00000000
C        1.22943347       2.12944219       0.00000000
C        4.91773548       4.25888410       0.00000000
C        2.45886737       2.83925651       0.00000000
C        6.14716917       4.96869829       0.00000000
C        2.45886765       4.25888385       0.00000000
C       -0.00000074       2.83925623       0.00000000
C        3.68830113       4.96869793       0.00000000
C       -1.22943458       2.12944276       0.00000000
C        6.14716903       6.38832637       0.00000000
C        9.83547135       2.83925682       0.00000000
C        1.22943307       4.96869851       0.00000000
C       -0.00000106       4.25888461       0.00000000
C        3.68830100       6.38832643       0.00000000
C        4.91773482       7.09814042       0.00000000
C       -2.45886804       4.25888334       0.00000000
C        2.45886670       7.09814015       0.00000000
C       -1.22943527       4.96869867       0.00000000
C        4.91773474       8.51776838       0.00000000
C        1.22943276       6.38832689       0.00000000
C        8.60603740       4.96869821       0.00000000
C       -1.22943511       6.38832621       0.00000000
C        3.68830051       9.22758244       0.00000000
C        2.45886659       8.51776863       0.00000000
C       -0.00000146       7.09814095       0.00000000
C       -2.45886909       7.09813985       0.00000000
C       -0.00000129       8.51776848       0.00000000
C        1.22943217       9.22758258       0.00000000
C        9.83547168       0.00000074       0.00000000
C       -1.22943529       9.22758213       0.00000000
C        7.37660377       0.00000058       0.00000000
C        8.60603723       0.70981522       0.00000000
C        6.14716983       0.70981370       0.00000000
C        8.60603763       2.12944235       0.00000000
C        7.37660293       2.83925721       0.00000000
C       -3.68830281       6.38832617       3.35461664
C        7.37660320       5.67851226       3.35461664
C       -3.68830342       7.80795410       3.35461664
C       -2.45886941       8.51776821       3.35461664
C       -4.91773710       8.51776817       3.35461664
C        4.91773600       0.00000023       3.35461664
C       -2.45887002       9.93739615       3.35461664
C        6.14716855       7.80795490       3.35461664
C       -4.91773777       9.93739622       3.35461664
C        2.45886777       0.00000016       3.35461664
C        4.91773565       1.41962818       3.35461664
C        6.14716966       2.12944229       3.35461664
C       -6.14717128      10.64720996       3.35461664
C        4.91773440       9.93739664       3.35461664
C        2.45886724       1.41962798       3.35461664
C        3.68830178       2.12944213       3.35461664
C        6.14716931       3.54907025       3.35461664
C        7.37660333       4.25888436       3.35461664
C       -0.00000048       1.41962797       3.35461664
C        1.22943347       2.12944219       3.35461664
C        4.91773548       4.25888410       3.35461664
C        3.68830130       3.54907030       3.35461664
C        2.45886765       4.25888385       3.35461664
C        1.22943310       3.54906970       3.35461664
C        9.83547155       1.41962866       3.35461664
C       -1.22943458       2.12944276       3.35461664
C        4.91773503       5.67851225       3.35461664
C        6.14716903       6.38832637       3.35461664
C        2.45886712       5.67851210       3.35461664
C       -1.22943506       3.54907049       3.35461664
C       -0.00000106       4.25888461       3.35461664
C        3.68830100       6.38832643       3.35461664
C       -2.45886804       4.25888334       3.35461664
C       -0.00000107       5.67851151       3.35461664
C        8.60603725       3.54907067       3.35461664
C        3.68830084       7.80795406       3.35461664
C        4.91773474       8.51776838       3.35461664
C        1.22943276       6.38832689       3.35461664
C       -2.45886877       5.67851147       3.35461664
C       -1.22943511       6.38832621       3.35461664
C        2.45886659       8.51776863       3.35461664
C        1.22943247       7.80795474       3.35461664
C       -1.22943537       7.80795352       3.35461664
C       -0.00000129       8.51776848       3.35461664
C        2.45886631       9.93739649       3.35461664
C        9.83547168       0.00000074       3.35461664
C        7.37660377       0.00000058       3.35461664
C       -0.00000231       9.93739758       3.35461664
C        8.60603763       2.12944235       3.35461664
C        7.37660369       1.41962856       3.35461664
C       -3.62403039       6.39255504       6.74731710
C       -2.39473659       8.52212713       6.74417646
C        7.44091058       7.10290324       6.74250318
C       -4.85325915       8.52248285       6.74178649
C       -3.62390766       9.23193365       6.74350708
C        4.98227854       0.00405786       6.74090757
C        6.21151376       9.23211352       6.73313989
C        2.52305705       0.00408583       6.73725663
C        6.21135114       2.13379077       6.74704433
C        3.75317682       0.71298070       6.73510081
C        0.06405334       0.00406296       6.72892842
C        1.29343729       0.71349047       6.72417572
C        3.75432885       2.13152813       6.73310958
C        4.98251504       2.84313355       6.74072388
C        7.44102175       4.26350008       6.74497540
C       11.12916397       0.71377358       6.72890039
C        1.29280488       2.13106124       6.71883841
C        4.98489029       4.26328776       6.73862861
C        2.52409534       2.83636588       6.73656697
C        6.21255093       4.97364864       6.73841722
C        2.52718007       4.26092542       6.76605160
C        0.06326909       2.84122116       6.72659431
C        3.75929001       4.97682953       6.73883148
C       -1.16587802       2.13302648       6.73081742
C        6.21181489       6.39319045       6.73578335
C        9.89961628       2.84362786       6.74033009
C        1.28964091       4.97654704       6.76504586
C        0.05913354       4.26068360       6.74602429
C        3.75389525       6.39595731       6.71439622
C        4.98297331       7.10388714       6.72003197
C       -2.39562015       4.26284626       6.74236799
C        2.52379728       7.10560034       6.70546587
C       -1.16733668       4.97310047       6.74142380
C        4.98228548       8.52290812       6.72300624
C        1.29305801       6.40013786       6.72892903
C        8.67028592       4.97328873       6.74536406
C       -1.16580194       6.39280813       6.74042274
C        3.75291938       9.23268543       6.72131008
C        2.52336253       8.52346744       6.71310305
C        0.06321942       7.10460628       6.72757182
C       -2.39456890       7.10255890       6.74435447
C        0.06374166       8.52327083       6.72865584
C        1.29348127       9.23269296       6.72706630
C        9.89967995       0.00447422       6.73229399
C       -1.16552357       9.23204225       6.73893315
C        7.44046206       0.00448875       6.74021470
C        8.67010294       0.71441484       6.73956835
C        6.21140193       0.71415309       6.74368690
C        8.67007046       2.13383532       6.74581209
C        7.44066146       2.84395953       6.74781930
Ag       2.41151392       4.56425289      11.80330685
Ag       2.08421465       2.17587939      10.55977214
Ag       2.41343517       6.96382493      10.53837661
Ag       2.04248935       4.57895132       9.21106239
154
Lattice="12.29434013 0.0 0.0 -6.14717148 10.64721006 0.0 0.0 0.0 22.0" Properties=species:S:1:pos:R:3 energy_eV=-1405.4918 mag=0.0 pbc="T T T"
C       -3.68830281       6.38832617       0.00000000
C       -2.45886941       8.51776821       0.00000000
C        7.37660287       7.09814063       0.00000000
C       -4.91773710       8.51776817       0.00000000
C       -3.68830350       9.22758206       0.00000000
C        4.91773600       0.00000023       0.00000000
C        6.14716864       9.22758255       0.00000000
C        2.45886777       0.00000016       0.00000000
C        6.14716966       2.12944229       0.00000000
C        3.68830160       0.70981459       0.00000000
C       -6.14717128      10.64720996       0.00000000
C        1.22943379       0.70981384       0.00000000
C        3.68830178       2.12944213       0.00000000
C        4.91773534       2.83925605       0.00000000
C        7.37660333       4.25888436       0.00000000
C       11.06490581       0.70981450       0.00000000
C        1.22943347       2.12944219       0.00000000
C        4.91773548       4.25888410       0.00000000
C        2.45886737       2.83925651       0.00000000
C        6.14716917       4.96869829       0.00000000
C        2.45886765       4.25888385       0.00000000
C       -0.00000074       2.83925623       0.00000000
C        3.68830113       4.96869793       0.00000000
C       -1.22943458       2.12944276       0.00000000
C        6.14716903       6.38832637       0.00000000
C        9.83547135       2.83925682       0.00000000
C        1.22943307       4.96869851       0.00000000
C       -0.00000106       4.25888461       0.00000000
C        3.68830100       6.38832643       0.00000000
C        4.91773482       7.09814042       0.00000000
C       -2.45886804       4.25888334       0.00000000
C        2.45886670       7.09814015       0.00000000
C       -1.22943527       4.96869867       0.00000000
C        4.91773474       8.51776838       0.00000000
C        1.22943276       6.38832689       0.00000000
C        8.60603740       4.96869821       0.00000000
C       -1.22943511       6.38832621       0.00000000
C        3.68830051       9.22758244       0.00000000
C        2.45886659       8.51776863       0.00000000
C       -0.00000146       7.09814095       0.00000000
C       -2.45886909       7.09813985       0.00000000
C       -0.00000129       8.51776848       0.00000000
C        1.22943217       9.22758258       0.00000000
C        9.83547168       0.00000074       0.00000000
C       -1.22943529       9.22758213       0.00000000
C        7.37660377       0.00000058       0.00000000
C        8.60603723       0.70981522       0.00000000
C        6.14716983       0.70981370       0.00000000
C        8.60603763       2.12944235       0.00000000
C        7.37660293       2.83925721       0.00000000
C       -3.68830281       6.38832617       3.35461664
C        7.37660320       5.67851226       3.35461664
C       -3.68830342       7.80795410       3.35461664
C       -2.45886941       8.51776821       3.35461664
C       -4.91773710       8.51776817       3.35461664
C        4.91773600       0.00000023       3.35461664
C       -2.45887002       9.93739615       3.35461664
C        6.14716855       7.80795490       3.35461664
C       -4.91773777       9.93739622       3.35461664
C        2.45886777       0.00000016       3.35461664
C        4.91773565       1.41962818       3.35461664
C        6.14716966       2.12944229       3.35461664
C       -6.14717128      10.64720996       3.35461664
C        4.91773440       9.93739664       3.35461664
C        2.45886724       1.41962798       3.35461664
C        3.68830178       2.12944213       3.35461664
C        6.14716931       3.54907025       3.35461664
C        7.37660333       4.25888436       3.35461664
C       -0.00000048       1.41962797       3.35461664
C        1.22943347       2.12944219       3.35461664
C        4.91773548       4.25888410       3.35461664
C        3.68830130       3.54907030       3.35461664
C        2.45886765       4.25888385       3.35461664
C        1.22943310       3.54906970       3.35461664
C        9.83547155       1.41962866       3.35461664
C       -1.22943458       2.12944276       3.35461664
C        4.91773503       5.67851225       3.35461664
C        6.14716903       6.38832637       3.35461664
C        2.45886712       5.67851210       3.35461664
C       -1.22943506       3.54907049       3.35461664
C       -0.00000106       4.25888461       3.35461664
C        3.68830100       6.38832643       3.35461664
C       -2.45886804       4.25888334       3.35461664
C       -0.00000107       5.67851151       3.35461664
C        8.60603725       3.54907067       3.35461664
C        3.68830084       7.80795406       3.35461664
C        4.91773474       8.51776838       3.35461664
C        1.22943276       6.38832689       3.35461664
C       -2.45886877       5.67851147       3.35461664
C       -1.22943511       6.38832621       3.35461664
C        2.45886659       8.51776863       3.35461664
C        1.22943247       7.80795474       3.35461664
C       -1.22943537       7.80795352       3.35461664
C       -0.00000129       8.51776848       3.35461664
C        2.45886631       9.93739649       3.35461664
C        9.83547168       0.00000074       3.35461664
C        7.37660377       0.00000058       3.35461664
C       -0.00000231       9.93739758       3.35461664
C        8.60603763       2.12944235       3.35461664
C        7.37660369       1.41962856       3.35461664
C       -3.70429141       6.47413248       6.65181752
C       -2.47434699       8.60365298       6.63906038
C        7.36085607       7.18408046       6.64979653
C       -4.93366754       8.60361875       6.64132139
C       -3.70408148       9.31347286       6.63821361
C        4.90249712       0.08530128       6.63118135
C        6.13162152       9.31363629       6.63927190
C        2.44341443       0.08534191       6.63494683
C        6.13221816       2.21421640       6.64081737
C        3.67318915       0.79450852       6.63071135
C       -0.01568484       0.08557372       6.63959847
C        1.21384020       0.79474269       6.64022683
C        3.67365057       2.21255524       6.64048830
C        4.90338775       2.92294643       6.64914705
C        7.36180160       4.34459236       6.65414570
C       11.04943789       0.79573318       6.64617475
C        1.21244009       2.21311165       6.65305568
C        4.90834591       4.34167276       6.67810948
C        2.44226036       2.91786479       6.66857936
C        6.13352450       5.05455965       6.66319843
C        2.43826617       4.34161101       6.71023180
C       -0.01596093       2.92493584       6.66051862
C        3.67686762       5.05751776       6.71184635
C       -1.24501714       2.21532104       6.65406228
C        6.13154802       6.47442838       6.65665256
C        9.81969295       2.92534278       6.65506620
C        1.20726490       5.05763407       6.67937709
C       -0.01842293       4.34471672       6.66557431
C        3.67292635       6.48197119       6.66890182
C        4.90299144       7.18672470       6.65274533
C       -2.47506976       4.34471606       6.65512313
C        2.44210058       7.18696475       6.64272944
C       -1.24615933       5.05518470       6.65626571
C        4.90238974       8.60492351       6.64082054
C        1.21266310       6.47667462       6.65036580
C        8.59047725       5.05489054       6.65459615
C       -1.24544826       6.47444415       6.64961510
C        3.67273771       9.31405987       6.63899021
C        2.44303116       8.60498734       6.63292833
C       -0.01632507       7.18518819       6.64254338
C       -2.47491486       7.18397607       6.64758440
C       -0.01591427       8.60425005       6.63531802
C        1.21364345       9.31401554       6.63416456
C        9.81988790       0.08611649       6.64294388
C       -1.24473110       9.31394403       6.63469218
C        7.36090035       0.08583501       6.63725130
C        8.59055964       0.79596590       6.64443957
C        6.13163761       0.79513228       6.63538608
C        8.59051372       2.21516341       6.64945059
C        7.36125229       2.92505348       6.64962600
Ag       3.08846725       4.68174451       9.14973462
Ag       2.53881566       7.04748859      10.48596110
Ag       3.73253331       2.38650545      10.54146766
Ag       3.11307162       4.73279355      11.76059315
154
Lattice="12.29434013 0.0 0.0 -6.14717148 10.64721006 0.0 0.0 0.0 22.0" Properties=species:S:1:pos:R:3 energy_eV=-1405.4275 mag=-0.0 pbc="T T T"
C       -3.68830281       6.38832617       0.00000000
C       -2.45886941       8.51776821       0.00000000
C        7.37660287       7.09814063       0.00000000
C       -4.91773710       8.51776817       0.00000000
C       -3.68830350       9.22758206       0.00000000
C        4.91773600       0.00000023       0.00000000
C        6.14716864       9.22758255       0.00000000
C        2.45886777       0.00000016       0.00000000
C        6.14716966       2.12944229       0.00000000
C        3.68830160       0.70981459       0.00000000
C       -6.14717128      10.64720996       0.00000000
C        1.22943379       0.70981384       0.00000000
C        3.68830178       2.12944213       0.00000000
C        4.91773534       2.83925605       0.00000000
C        7.37660333       4.25888436       0.00000000
C       11.06490581       0.70981450       0.00000000
C        1.22943347       2.12944219       0.00000000
C        4.91773548       4.25888410       0.00000000
C        2.45886737       2.83925651       0.00000000
C        6.14716917       4.96869829       0.00000000
C        2.45886765       4.25888385       0.00000000
C       -0.00000074       2.83925623       0.00000000
C        3.68830113       4.96869793       0.00000000
C       -1.22943458       2.12944276       0.00000000
C        6.14716903       6.38832637       0.00000000
C        9.83547135       2.83925682       0.00000000
C        1.22943307       4.96869851       0.00000000
C       -0.00000106       4.25888461       0.00000000
C        3.68830100       6.38832643       0.00000000
C        4.91773482       7.09814042       0.00000000
C       -2.45886804       4.25888334       0.00000000
C        2.45886670       7.09814015       0.00000000
C       -1.22943527       4.96869867       0.00000000
C        4.91773474       8.51776838       0.00000000
C        1.22943276       6.38832689       0.00000000
C        8.60603740       4.96869821       0.00000000
C       -1.22943511       6.38832621       0.00000000
C        3.68830051       9.22758244       0.00000000
C        2.45886659       8.51776863       0.00000000
C       -0.00000146       7.09814095       0.00000000
C       -2.45886909       7.09813985       0.00000000
C       -0.00000129       8.51776848       0.00000000
C        1.22943217       9.22758258       0.00000000
C        9.83547168       0.00000074       0.00000000
C       -1.22943529       9.22758213       0.00000000
C        7.37660377       0.00000058       0.00000000
C        8.60603723       0.70981522       0.00000000
C        6.14716983       0.70981370       0.00000000
C        8.60603763       2.12944235       0.00000000
C        7.37660293       2.83925721       0.00000000
C       -3.68830281       6.38832617       3.35461664
C        7.37660320       5.67851226       3.35461664
C       -3.68830342       7.80795410       3.35461664
C       -2.45886941       8.51776821       3.35461664
C       -4.91773710       8.51776817       3.35461664
C        4.91773600       0.00000023       3.35461664
C       -2.45887002       9.93739615       3.35461664
C        6.14716855       7.80795490       3.35461664
C       -4.91773777       9.93739622       3.35461664
C        2.45886777       0.00000016       3.35461664
C        4.91773565       1.41962818       3.35461664
C        6.14716966       2.12944229       3.35461664
C       -6.14717128      10.64720996       3.35461664
C        4.91773440       9.93739664       3.35461664
C        2.45886724       1.41962798       3.35461664
C        3.68830178       2.12944213       3.35461664
C        6.14716931       3.54907025       3.35461664
C        7.37660333       4.25888436       3.35461664
C       -0.00000048       1.41962797       3.35461664
C        1.22943347       2.12944219       3.35461664
C        4.91773548       4.25888410       3.35461664
C        3.68830130       3.54907030       3.35461664
C        2.45886765       4.25888385       3.35461664
C        1.22943310       3.54906970       3.35461664
C        9.83547155       1.41962866       3.35461664
C       -1.22943458       2.12944276       3.35461664
C        4.91773503       5.67851225       3.35461664
C        6.14716903       6.38832637       3.35461664
C        2.45886712       5.67851210       3.35461664
C       -1.22943506       3.54907049       3.35461664
C       -0.00000106       4.25888461       3.35461664
C        3.68830100       6.38832643       3.35461664
C       -2.45886804       4.25888334       3.35461664
C       -0.00000107       5.67851151       3.35461664
C        8.60603725       3.54907067       3.35461664
C        3.68830084       7.80795406       3.35461664
C        4.91773474       8.51776838       3.35461664
C        1.22943276       6.38832689       3.35461664
C       -2.45886877       5.67851147       3.35461664
C       -1.22943511       6.38832621       3.35461664
C        2.45886659       8.51776863       3.35461664
C        1.22943247       7.80795474       3.35461664
C       -1.22943537       7.80795352       3.35461664
C       -0.00000129       8.51776848       3.35461664
C        2.45886631       9.93739649       3.35461664
C        9.83547168       0.00000074       3.35461664
C        7.37660377       0.00000058       3.35461664
C       -0.00000231       9.93739758       3.35461664
C        8.60603763       2.12944235       3.35461664
C        7.37660369       1.41962856       3.35461664
C        8.54245790       6.45346816       6.64526677
C       -2.52184907       8.58241440       6.64119297
C        7.31272784       7.16336298       6.64654482
C        7.31320994       8.58271683       6.64667418
C       -3.75118320       9.29144621       6.64292033
C        4.85696195       0.06434920       6.63629952
C        6.08286098       9.29165210       6.64656691
C        2.39655969       0.06230816       6.63821455
C        6.08598962       2.19417988       6.63975465
C        3.62740496       0.77237425       6.63438441
C       12.22925754       0.06289203       6.64536321
C        1.16508866       0.76809835       6.64825206
C        3.63273084       2.19138037       6.63877229
C        4.85833844       2.90445386       6.63292133
C        7.31357248       4.32391893       6.64248343
C       11.00148125       0.77504296       6.64478172
C        1.16188520       2.19172458       6.66265492
C        4.85510492       4.32381009       6.62910054
C        2.40038579       2.90670202       6.65822606
C        6.08390664       5.03345391       6.63861343
C        2.39727815       4.33151701       6.62724434
C       -0.06946656       2.90681453       6.63742797
C        3.62695406       5.03624478       6.62380770
C       10.99921235       2.19456436       6.63853952
C        6.08322160       6.45373298       6.64227350
C        9.77138861       2.90530628       6.64004118
C        1.16636453       5.03674992       6.61779321
C       -0.06442304       4.32617811       6.62076495
C        3.62576462       6.45496967       6.62936054
C        4.85427647       7.16441359       6.63937009
C        9.77118651       4.32454515       6.63791460
C        2.39625277       7.16470567       6.63137254
C       -1.29420191       5.03555621       6.62876802
C        4.85365852       8.58292172       6.64486435
C        1.16639105       6.45563122       6.62446981
C        8.54228295       5.03424378       6.64391761
C       -1.29317489       6.45494309       6.63400173
C        3.62480912       9.29320661       6.64480227
C        2.39580501       8.58368907       6.63905942
C       -0.06354326       7.16463832       6.63234928
C       -2.52253541       7.16402030       6.64222887
C       -0.06321824       8.58370206       6.63671220
C        1.16647622       9.29393101       6.63993213
C        9.77224019       0.06539943       6.64633298
C       -1.29256059       9.29270009       6.63800469
C        7.31378374       0.06611190       6.64418909
C        8.54300669       0.77602090       6.64696241
C        6.08506667       0.77558512       6.64132441
C        8.54296554       2.19540016       6.64575367
C        7.31371932       2.90456719       6.64386591
Ag       1.28904035       2.79242472      11.65308310
Ag       1.80424236       2.67797017       9.10391432
Ag       3.38268646       4.27389026      10.66200481
Ag       5.39599320       5.81050343      10.06478894
154
Lattice="12.29434013 0.0 0.0 -6.14717148 10.64721006 0.0 0.0 0.0 22.0" Properties=species:S:1:pos:R:3 energy_eV=-1404.5009 mag=1.9991 pbc="T T T"
C       -3.68830281       6.38832617       0.00000000
C       -2.45886941       8.51776821       0.00000000
C        7.37660287       7.09814063       0.00000000
C       -4.91773710       8.51776817       0.00000000
C       -3.68830350       9.22758206       0.00000000
C        4.91773600       0.00000023       0.00000000
C        6.14716864       9.22758255       0.00000000
C        2.45886777       0.00000016       0.00000000
C        6.14716966       2.12944229       0.00000000
C        3.68830160       0.70981459       0.00000000
C       -6.14717128      10.64720996       0.00000000
C        1.22943379       0.70981384       0.00000000
C        3.68830178       2.12944213       0.00000000
C        4.91773534       2.83925605       0.00000000
C        7.37660333       4.25888436       0.00000000
C       11.06490581       0.70981450       0.00000000
C        1.22943347       2.12944219       0.00000000
C        4.91773548       4.25888410       0.00000000
C        2.45886737       2.83925651       0.00000000
C        6.14716917       4.96869829       0.00000000
C        2.45886765       4.25888385       0.00000000
C       -0.00000074       2.83925623       0.00000000
C        3.68830113       4.96869793       0.00000000
C       -1.22943458       2.12944276       0.00000000
C        6.14716903       6.38832637       0.00000000
C        9.83547135       2.83925682       0.00000000
C        1.22943307       4.96869851       0.00000000
C       -0.00000106       4.25888461       0.00000000
C        3.68830100       6.38832643       0.00000000
C        4.91773482       7.09814042       0.00000000
C       -2.45886804       4.25888334       0.00000000
C        2.45886670       7.09814015       0.00000000
C       -1.22943527       4.96869867       0.00000000
C        4.91773474       8.51776838       0.00000000
C        1.22943276       6.38832689       0.00000000
C        8.60603740       4.96869821       0.00000000
C       -1.22943511       6.38832621       0.00000000
C        3.68830051       9.22758244       0.00000000
C        2.45886659       8.51776863       0.00000000
C       -0.00000146       7.09814095       0.00000000
C       -2.45886909       7.09813985       0.00000000
C       -0.00000129       8.51776848       0.00000000
C        1.22943217       9.22758258       0.00000000
C        9.83547168       0.00000074       0.00000000
C       -1.22943529       9.22758213       0.00000000
C        7.37660377       0.00000058       0.00000000
C        8.60603723       0.70981522       0.00000000
C        6.14716983       0.70981370       0.00000000
C        8.60603763       2.12944235       0.00000000
C        7.37660293       2.83925721       0.00000000
C       -3.68830281       6.38832617       3.35461664
C        7.37660320       5.67851226       3.35461664
C       -3.68830342       7.80795410       3.35461664
C       -2.45886941       8.51776821       3.35461664
C       -4.91773710       8.51776817       3.35461664
C        4.91773600       0.00000023       3.35461664
C       -2.45887002       9.93739615       3.35461664
C        6.14716855       7.80795490       3.35461664
C       -4.91773777       9.93739622       3.35461664
C        2.45886777       0.00000016       3.35461664
C        4.91773565       1.41962818       3.35461664
C        6.14716966       2.12944229       3.35461664
C       -6.14717128      10.64720996       3.35461664
C        4.91773440       9.93739664       3.35461664
C        2.45886724       1.41962798       3.35461664
C        3.68830178       2.12944213       3.35461664
C        6.14716931       3.54907025       3.35461664
C        7.37660333       4.25888436       3.35461664
C       -0.00000048       1.41962797       3.35461664
C        1.22943347       2.12944219       3.35461664
C        4.91773548       4.25888410       3.35461664
C        3.68830130       3.54907030       3.35461664
C        2.45886765       4.25888385       3.35461664
C        1.22943310       3.54906970       3.35461664
C        9.83547155       1.41962866       3.35461664
C       -1.22943458       2.12944276       3.35461664
C        4.91773503       5.67851225       3.35461664
C        6.14716903       6.38832637       3.35461664
C        2.45886712       5.67851210       3.35461664
C       -1.22943506       3.54907049       3.35461664
C       -0.00000106       4.25888461       3.35461664
C        3.68830100       6.38832643       3.35461664