154
Lattice="12.29434013 0.0 0.0 -6.14717148 10.64721006 0.0 0.0 0.0 22.0" Properties=species:S:1:pos:R:3 energy_eV=-1407.4909 mag=0.0 pbc="T T T"
C       -1.22943471       6.38832604       0.00000000
C        1.22943319       6.38832576       0.00000000
C       -1.22943429       4.96869751       0.00000000
C       -0.00000042       4.25888404       0.00000000
C        1.22943324       4.96869783       0.00000000
C        3.68830137       6.38832587       0.00000000
C       -0.00000006       2.83925560       0.00000000
C        2.45886748       4.25888373       0.00000000
C        6.14716940       6.38832579       0.00000000
C        3.68830172       4.96869743       0.00000000
C        1.22943375       2.12944225       0.00000000
C        2.45886743       2.83925599       0.00000000
C        4.91773559       4.25888397       0.00000000
C        6.14716928       4.96869772       0.00000000
C       -3.68830269       6.38832571       0.00000000
C        1.22943424       0.70981358       0.00000000
C        3.68830178       2.12944172       0.00000000
C        7.37660357       4.25888397       0.00000000
C        4.91773595       2.83925552       0.00000000
C        8.60603755       4.96869769       0.00000000
C        6.14716972       2.12944226       0.00000000
C        3.68830195       0.70981360       0.00000000
C        7.37660349       2.83925584       0.00000000
C       -3.68830294      10.64720945       0.00000000
C        9.83547172       4.25888369       0.00000000
C       -3.68830276       9.22758133       0.00000000
C        6.14717025       0.70981351       0.00000000
C       -1.22943516      10.64720936       0.00000000
C        8.60603804       2.12944166       0.00000000
C        9.83547191       2.83925558       0.00000000
C       -2.45886947       8.51776888       0.00000000
C        8.60603790       0.70981362       0.00000000
C       -1.22943499       9.22758123       0.00000000
C       11.06490601       2.12944170       0.00000000
C        1.22943313      10.64720927       0.00000000
C       -2.45886882       7.09813993       0.00000000
C       -0.00000111       8.51776776       0.00000000
C       11.06490620       0.70981356       0.00000000
C        3.68830098      10.64720951       0.00000000
C        1.22943331       9.22758114       0.00000000
C       -0.00000117       7.09814004       0.00000000
C        2.45886719       8.51776769       0.00000000
C        3.68830096       9.22758126       0.00000000
C       -6.14717105      10.64720932       0.00000000
C        2.45886712       7.09813996       0.00000000
C        4.91773527       8.51776749       0.00000000
C        6.14716950       9.22758078       0.00000000
C        4.91773478       7.09814007       0.00000000
C       -4.91773699       8.51776772       0.00000000
C        7.37660379       7.09813878       0.00000000
C       -1.22943471       6.38832604       3.35461664
C       -2.45886864       5.67851181       3.35461664
C       -0.00000087       5.67851171       3.35461664
C        1.22943319       6.38832576       3.35461664
C       -0.00000042       4.25888404       3.35461664
C        3.68830137       6.38832587       3.35461664
C        2.45886702       5.67851139       3.35461664
C       -1.22943399       3.54906917       3.35461664
C        1.22943347       3.54906960       3.35461664
C        2.45886748       4.25888373       3.35461664
C        4.91773535       5.67851176       3.35461664
C        6.14716940       6.38832579       3.35461664
C        1.22943375       2.12944225       3.35461664
C        0.00000014       1.41962744       3.35461664
C        3.68830124       3.54906950       3.35461664
C        4.91773559       4.25888397       3.35461664
C        7.37660339       5.67851167       3.35461664
C       -3.68830269       6.38832571       3.35461664
C        2.45886765       1.41962779       3.35461664
C        3.68830178       2.12944172       3.35461664
C        7.37660357       4.25888397       3.35461664
C        6.14716970       3.54906964       3.35461664
C        6.14716972       2.12944226       3.35461664
C        4.91773536       1.41962778       3.35461664
C       -4.91773699       9.93739542       3.35461664
C       -3.68830294      10.64720945       3.35461664
C        8.60603767       3.54906967       3.35461664
C        9.83547172       4.25888369       3.35461664
C        7.37660387       1.41962784       3.35461664
C       -2.45886923       9.93739533       3.35461664
C       -1.22943516      10.64720936       3.35461664
C        8.60603804       2.12944166       3.35461664
C       -2.45886947       8.51776888       3.35461664
C       -0.00000193       9.93739603       3.35461664
C       -3.68830270       7.80795340       3.35461664
C        9.83547185       1.41962786       3.35461664
C       11.06490601       2.12944170       3.35461664
C        1.22943313      10.64720927       3.35461664
C       -1.22943553       7.80795434       3.35461664
C       -0.00000111       8.51776776       3.35461664
C        3.68830098      10.64720951       3.35461664
C        2.45886706       9.93739526       3.35461664
C        1.22943237       7.80795402       3.35461664
C        2.45886719       8.51776769       3.35461664
C        4.91773490       9.93739550       3.35461664
C       -6.14717105      10.64720932       3.35461664
C        4.91773527       8.51776749       3.35461664
C        3.68830182       7.80795243       3.35461664
C       -4.91773699       8.51776772       3.35461664
C        6.14716940       7.80795359       3.35461664
C       -1.27811024       6.31733310       6.67910415
C        1.17969720       6.32243826       6.68959751
C       -1.27988189       4.89768580       6.67765199
C       -0.05322338       4.18775533       6.69961286
C        1.16892315       4.90565482       6.73241917
C        3.64550735       6.32251556       6.65263538
C       -0.04940288       2.76546915       6.69018671
C        2.41353252       4.19193438       6.79383622
C        6.10112046       6.31687118       6.63337167
C        3.65624617       4.90554105       6.69999948
C        1.17614505       2.05148887       6.71942229
C        2.41203116       2.75407192       6.77424879
C        4.87748092       4.18747502       6.66665310
C        6.10346760       4.89754933       6.64215273
C        8.55835772       6.31632299       6.65604987
C        1.18122338       0.63454870       6.68746922
C        3.64783239       2.05122146       6.71701083
C        7.33088724       4.18695922       6.64572332
C        4.87321633       2.76522408       6.67948385
C        8.55839658       4.89611259       6.65254026
C        6.10169253       2.05622540       6.66098638
C        3.64306000       0.63460504       6.69600158
C        7.33039395       2.76719750       6.65111165
C       -3.73494673      10.57315253       6.68795244
C        9.78667212       4.18716145       6.66094820
C       -3.73542917       9.15507514       6.67292520
C        6.10132467       0.63655677       6.66868095
C       -1.27500381      10.57361007       6.67871758
C        8.55922806       2.05748036       6.65123434
C        9.78765203       2.76736776       6.65585229
C       -2.50612143       8.44542410       6.67502525
C        8.55973480       0.63631807       6.65297268
C       -1.27667030       9.15478519       6.67701541
C       11.01714651       2.05654413       6.66100927
C        1.18339882      10.57403900       6.65987521
C       -2.50720994       7.02638739       6.67095904
C       -0.04709453       8.44648691       6.67246718
C       11.01817567       0.63704456       6.65352082
C        3.64224163      10.57428385       6.64552431
C        1.18286905       9.15512881       6.66166465
C       -0.04919302       7.02823707       6.68056063
C        2.41266302       8.44557743       6.64994742
C        3.64278275       9.15527198       6.63908076
C        6.09960298      10.57365767       6.65842892
C        2.41308303       7.02741379       6.66370630
C        4.87176258       8.44640331       6.63088177
C        6.10047210       9.15513855       6.64327149
C        4.87313646       7.02820047       6.62889664
C        7.32938683       8.44572630       6.65356711
C        7.32975028       7.02628557       6.64519411
Au       2.27959157       3.90084112      11.59949906
Au       2.46157715       4.05132508       9.03434212
Au       5.48686887       7.63544908      10.06045383
Au       3.87767959       5.75641517      10.57583497
154
Lattice="12.29434013 0.0 0.0 -6.14717148 10.64721006 0.0 0.0 0.0 22.0" Properties=species:S:1:pos:R:3 energy_eV=-1407.3676 mag=-0.0 pbc="T T T"
C       -1.22943471       6.38832604       0.00000000
C        1.22943319       6.38832576       0.00000000
C       -1.22943429       4.96869751       0.00000000
C       -0.00000042       4.25888404       0.00000000
C        1.22943324       4.96869783       0.00000000
C        3.68830137       6.38832587       0.00000000
C       -0.00000006       2.83925560       0.00000000
C        2.45886748       4.25888373       0.00000000
C        6.14716940       6.38832579       0.00000000
C        3.68830172       4.96869743       0.00000000
C        1.22943375       2.12944225       0.00000000
C        2.45886743       2.83925599       0.00000000
C        4.91773559       4.25888397       0.00000000
C        6.14716928       4.96869772       0.00000000
C       -3.68830269       6.38832571       0.00000000
C        1.22943424       0.70981358       0.00000000
C        3.68830178       2.12944172       0.00000000
C        7.37660357       4.25888397       0.00000000
C        4.91773595       2.83925552       0.00000000
C        8.60603755       4.96869769       0.00000000
C        6.14716972       2.12944226       0.00000000
C        3.68830195       0.70981360       0.00000000
C        7.37660349       2.83925584       0.00000000
C       -3.68830294      10.64720945       0.00000000
C        9.83547172       4.25888369       0.00000000
C       -3.68830276       9.22758133       0.00000000
C        6.14717025       0.70981351       0.00000000
C       -1.22943516      10.64720936       0.00000000
C        8.60603804       2.12944166       0.00000000
C        9.83547191       2.83925558       0.00000000
C       -2.45886947       8.51776888       0.00000000
C        8.60603790       0.70981362       0.00000000
C       -1.22943499       9.22758123       0.00000000
C       11.06490601       2.12944170       0.00000000
C        1.22943313      10.64720927       0.00000000
C       -2.45886882       7.09813993       0.00000000
C       -0.00000111       8.51776776       0.00000000
C       11.06490620       0.70981356       0.00000000
C        3.68830098      10.64720951       0.00000000
C        1.22943331       9.22758114       0.00000000
C       -0.00000117       7.09814004       0.00000000
C        2.45886719       8.51776769       0.00000000
C        3.68830096       9.22758126       0.00000000
C       -6.14717105      10.64720932       0.00000000
C        2.45886712       7.09813996       0.00000000
C        4.91773527       8.51776749       0.00000000
C        6.14716950       9.22758078       0.00000000
C        4.91773478       7.09814007       0.00000000
C       -4.91773699       8.51776772       0.00000000
C        7.37660379       7.09813878       0.00000000
C       -1.22943471       6.38832604       3.35461664
C       -2.45886864       5.67851181       3.35461664
C       -0.00000087       5.67851171       3.35461664
C        1.22943319       6.38832576       3.35461664
C       -0.00000042       4.25888404       3.35461664
C        3.68830137       6.38832587       3.35461664
C        2.45886702       5.67851139       3.35461664
C       -1.22943399       3.54906917       3.35461664
C        1.22943347       3.54906960       3.35461664
C        2.45886748       4.25888373       3.35461664
C        4.91773535       5.67851176       3.35461664
C        6.14716940       6.38832579       3.35461664
C        1.22943375       2.12944225       3.35461664
C        0.00000014       1.41962744       3.35461664
C        3.68830124       3.54906950       3.35461664
C        4.91773559       4.25888397       3.35461664
C        7.37660339       5.67851167       3.35461664
C       -3.68830269       6.38832571       3.35461664
C        2.45886765       1.41962779       3.35461664
C        3.68830178       2.12944172       3.35461664
C        7.37660357       4.25888397       3.35461664
C        6.14716970       3.54906964       3.35461664
C        6.14716972       2.12944226       3.35461664
C        4.91773536       1.41962778       3.35461664
C       -4.91773699       9.93739542       3.35461664
C       -3.68830294      10.64720945       3.35461664
C        8.60603767       3.54906967       3.35461664
C        9.83547172       4.25888369       3.35461664
C        7.37660387       1.41962784       3.35461664
C       -2.45886923       9.93739533       3.35461664
C       -1.22943516      10.64720936       3.35461664
C        8.60603804       2.12944166       3.35461664
C       -2.45886947       8.51776888       3.35461664
C       -0.00000193       9.93739603       3.35461664
C       -3.68830270       7.80795340       3.35461664
C        9.83547185       1.41962786       3.35461664
C       11.06490601       2.12944170       3.35461664
C        1.22943313      10.64720927       3.35461664
C       -1.22943553       7.80795434       3.35461664
C       -0.00000111       8.51776776       3.35461664
C        3.68830098      10.64720951       3.35461664
C        2.45886706       9.93739526       3.35461664
C        1.22943237       7.80795402       3.35461664
C        2.45886719       8.51776769       3.35461664
C        4.91773490       9.93739550       3.35461664
C       -6.14717105      10.64720932       3.35461664
C        4.91773527       8.51776749       3.35461664
C        3.68830182       7.80795243       3.35461664
C       -4.91773699       8.51776772       3.35461664
C        6.14716940       7.80795359       3.35461664
C       -1.14794785       6.38812291       6.65883916
C        1.30929644       6.38996863       6.67904805
C       -1.14806512       4.96921917       6.67203615
C        0.07954953       4.25921606       6.69476505
C        1.30171932       4.97368263       6.72285769
C        3.77253116       6.40368750       6.69907494
C        0.08213679       2.83888826       6.69009964
C        2.53358445       4.25350039       6.79000130
C        6.23140039       6.38777447       6.65600615
C        3.78079139       4.97311022       6.77744723
C        1.31096994       2.12660377       6.68253554
C        2.54053871       2.82656508       6.70948109
C        5.01516707       4.25144579       6.68736030
C        6.23604948       4.96756581       6.65609341
C       -3.60508581       6.38645797       6.64797835
C        1.31295883       0.70801187       6.65816750
C        3.77095592       2.12529284       6.66011942
C        7.46263584       4.25708610       6.64309752
C        5.00446583       2.83488457       6.65057444
C        8.69009970       4.96759965       6.65115952
C        6.23252456       2.12674487       6.63597406
C        3.77156454       0.70734770       6.64094105
C        7.46183832       2.83793092       6.64269387
C       -3.60550381      10.64540150       6.64668372
C       -2.37561665       4.25862117       6.66228740
C       -3.60551599       9.22604766       6.64681051
C        6.23117071       0.70783680       6.63538934
C       -1.14597614      10.64585127       6.63422676
C        8.69098397       2.12872434       6.65137882
C        9.92021949       2.83966962       6.66418062
C       -2.37667791       8.51683384       6.64655328
C        8.68970586       0.70944562       6.64775918
C       -1.14638311       9.22743195       6.64015378
C       -1.14535765       2.12943711       6.66983573
C        1.31202215      10.64603214       6.63899555
C       -2.37653678       7.09764475       6.65088324
C        0.08229726       8.51841693       6.63988519
C       11.14922252       0.70980690       6.65884092
C        9.91914989       0.00118793       6.64973686
C        1.31256604       9.22780934       6.64095461
C        0.08117032       7.09897609       6.65480693
C        2.54200013       8.52024735       6.64424811
C        3.77178667       9.22909910       6.64636135
C       -6.06370501      10.64701891       6.65437387
C        2.54142644       7.10244891       6.66940349
C        5.00084766       8.52005370       6.64948761
C        6.23045221       9.22793974       6.64855251
C        5.00310188       7.10185503       6.66367742
C       -4.83537126       8.51727776       6.64866099
C        7.45951720       7.09665411       6.65026531
Au      -0.49675351       4.64329968      11.77093797
Au       3.36214573       4.65366589       9.00922334
Au       1.98502160       4.65094905      11.29617016
Au       4.62409865       4.64121769      11.28720874
154
Lattice="12.29434013 0.0 0.0 -6.14717148 10.64721006 0.0 0.0 0.0 22.0" Properties=species:S:1:pos:R:3 energy_eV=-1407.2687 mag=0.0 pbc="T T T"
C       -1.22943471       6.38832604       0.00000000
C        1.22943319       6.38832576       0.00000000
C       -1.22943429       4.96869751       0.00000000
C       -0.00000042       4.25888404       0.00000000
C        1.22943324       4.96869783       0.00000000
C        3.68830137       6.38832587       0.00000000
C       -0.00000006       2.83925560       0.00000000
C        2.45886748       4.25888373       0.00000000
C        6.14716940       6.38832579       0.00000000
C        3.68830172       4.96869743       0.00000000
C        1.22943375       2.12944225       0.00000000
C        2.45886743       2.83925599       0.00000000
C        4.91773559       4.25888397       0.00000000
C        6.14716928       4.96869772       0.00000000
C       -3.68830269       6.38832571       0.00000000
C        1.22943424       0.70981358       0.00000000
C        3.68830178       2.12944172       0.00000000
C        7.37660357       4.25888397       0.00000000
C        4.91773595       2.83925552       0.00000000
C        8.60603755       4.96869769       0.00000000
C        6.14716972       2.12944226       0.00000000
C        3.68830195       0.70981360       0.00000000
C        7.37660349       2.83925584       0.00000000
C       -3.68830294      10.64720945       0.00000000
C        9.83547172       4.25888369       0.00000000
C       -3.68830276       9.22758133       0.00000000
C        6.14717025       0.70981351       0.00000000
C       -1.22943516      10.64720936       0.00000000
C        8.60603804       2.12944166       0.00000000
C        9.83547191       2.83925558       0.00000000
C       -2.45886947       8.51776888       0.00000000
C        8.60603790       0.70981362       0.00000000
C       -1.22943499       9.22758123       0.00000000
C       11.06490601       2.12944170       0.00000000
C        1.22943313      10.64720927       0.00000000
C       -2.45886882       7.09813993       0.00000000
C       -0.00000111       8.51776776       0.00000000
C       11.06490620       0.70981356       0.00000000
C        3.68830098      10.64720951       0.00000000
C        1.22943331       9.22758114       0.00000000
C       -0.00000117       7.09814004       0.00000000
C        2.45886719       8.51776769       0.00000000
C        3.68830096       9.22758126       0.00000000
C       -6.14717105      10.64720932       0.00000000
C        2.45886712       7.09813996       0.00000000
C        4.91773527       8.51776749       0.00000000
C        6.14716950       9.22758078       0.00000000
C        4.91773478       7.09814007       0.00000000
C       -4.91773699       8.51776772       0.00000000
C        7.37660379       7.09813878       0.00000000
C       -1.22943471       6.38832604       3.35461664
C       -2.45886864       5.67851181       3.35461664
C       -0.00000087       5.67851171       3.35461664
C        1.22943319       6.38832576       3.35461664
C       -0.00000042       4.25888404       3.35461664
C        3.68830137       6.38832587       3.35461664
C        2.45886702       5.67851139       3.35461664
C       -1.22943399       3.54906917       3.35461664
C        1.22943347       3.54906960       3.35461664
C        2.45886748       4.25888373       3.35461664
C        4.91773535       5.67851176       3.35461664
C        6.14716940       6.38832579       3.35461664
C        1.22943375       2.12944225       3.35461664
C        0.00000014       1.41962744       3.35461664
C        3.68830124       3.54906950       3.35461664
C        4.91773559       4.25888397       3.35461664
C        7.37660339       5.67851167       3.35461664
C       -3.68830269       6.38832571       3.35461664
C        2.45886765       1.41962779       3.35461664
C        3.68830178       2.12944172       3.35461664
C        7.37660357       4.25888397       3.35461664
C        6.14716970       3.54906964       3.35461664
C        6.14716972       2.12944226       3.35461664
C        4.91773536       1.41962778       3.35461664
C       -4.91773699       9.93739542       3.35461664
C       -3.68830294      10.64720945       3.35461664
C        8.60603767       3.54906967       3.35461664
C        9.83547172       4.25888369       3.35461664
C        7.37660387       1.41962784       3.35461664
C       -2.45886923       9.93739533       3.35461664
C       -1.22943516      10.64720936       3.35461664
C        8.60603804       2.12944166       3.35461664
C       -2.45886947       8.51776888       3.35461664
C       -0.00000193       9.93739603       3.35461664
C       -3.68830270       7.80795340       3.35461664
C        9.83547185       1.41962786       3.35461664
C       11.06490601       2.12944170       3.35461664
C        1.22943313      10.64720927       3.35461664
C       -1.22943553       7.80795434       3.35461664
C       -0.00000111       8.51776776       3.35461664
C        3.68830098      10.64720951       3.35461664
C        2.45886706       9.93739526       3.35461664
C        1.22943237       7.80795402       3.35461664
C        2.45886719       8.51776769       3.35461664
C        4.91773490       9.93739550       3.35461664
C       -6.14717105      10.64720932       3.35461664
C        4.91773527       8.51776749       3.35461664
C        3.68830182       7.80795243       3.35461664
C       -4.91773699       8.51776772       3.35461664
C        6.14716940       7.80795359       3.35461664
C       -1.21912149       6.48003044       6.76073589
C        1.23905003       6.48496609       6.76181743
C       -1.22115137       5.06118086       6.76631702
C        0.00601148       4.35085506       6.78507422
C        1.22879257       5.06749004       6.80999652
C        3.70203696       6.49083536       6.76937555
C        0.01049120       2.92954935       6.77918085
C        2.46649653       4.34608582       6.87671545
C        6.15965573       6.48017825       6.76698975
C        3.71046987       5.06734083       6.84037489
C        1.23924813       2.21539902       6.77628784
C        2.47050726       2.91482459       6.79915642
C        4.93905017       4.34677647       6.77966093
C        6.16305146       5.06014541       6.76621355
C       -3.67664495       6.47900248       6.75942237
C        1.24141175       0.79778096       6.76153565
C        3.70225886       2.21500789       6.75483352
C        7.39092376       4.35010334       6.75379173
C        4.93181632       2.92811099       6.75304249
C        8.61815357       5.06038143       6.75316608
C        6.16064880       2.22028357       6.74554208
C        3.70108110       0.79857611       6.74539193
C        7.38969707       2.93135007       6.75013333
C        2.47109214       0.08921238       6.75774842
C       -2.44826327       4.35068690       6.75600029
C       -3.67621179       9.31773522       6.75712499
C        6.15948717       0.80080364       6.74059058
C        4.92999339       0.08997021       6.73900914
C        8.61866698       2.22083385       6.75514575
C        9.84726432       2.93171281       6.76022222
C       -2.44749698       8.60871339       6.75275948
C        8.61911389       0.80180790       6.75154907
C       -1.21778140       9.31888785       6.74163432
C       -1.21779638       2.22076694       6.76677300
C        7.38836741       0.09158269       6.74290708
C       -2.44777132       7.18991326       6.75863389
C        0.01118336       8.61034833       6.74073908
C       11.07778497       0.80062033       6.76032042
C        9.84821668       0.09225908       6.75546115
C        1.24125061       9.32029806       6.74261320
C        0.00998305       7.19184961       6.75133894
C        2.47102167       8.61102291       6.74187549
C        3.70099397       9.32083791       6.74942808
C        0.01195095       0.09055072       6.75520927
C        2.47111238       7.19414076       6.74525909
C        4.93018657       8.61147659       6.75058620
C        6.15978286       9.31886918       6.75227112
C        4.93114323       7.19325963       6.75837534
C       -4.90591355       8.60903235       6.75859112
C        7.38798869       7.18879413       6.76284296
Au       2.87587938       4.59109919       9.14319327
Au       3.23738151       2.33722647      10.66954825
Au       3.19166700       4.76053445      11.71821630
Au       2.89113210       7.03839930      10.41852256
154
Lattice="12.29434013 0.0 0.0 -6.14717148 10.64721006 0.0 0.0 0.0 22.0" Properties=species:S:1:pos:R:3 energy_eV=-1407.2684 mag=0.0 pbc="T T T"
C       -1.22943471       6.38832604       0.00000000
C        1.22943319       6.38832576       0.00000000
C       -1.22943429       4.96869751       0.00000000
C       -0.00000042       4.25888404       0.00000000
C        1.22943324       4.96869783       0.00000000
C        3.68830137       6.38832587       0.00000000
C       -0.00000006       2.83925560       0.00000000
C        2.45886748       4.25888373       0.00000000
C        6.14716940       6.38832579       0.00000000
C        3.68830172       4.96869743       0.00000000
C        1.22943375       2.12944225       0.00000000
C        2.45886743       2.83925599       0.00000000
C        4.91773559       4.25888397       0.00000000
C        6.14716928       4.96869772       0.00000000
C       -3.68830269       6.38832571       0.00000000
C        1.22943424       0.70981358       0.00000000
C        3.68830178       2.12944172       0.00000000
C        7.37660357       4.25888397       0.00000000
C        4.91773595       2.83925552       0.00000000
C        8.60603755       4.96869769       0.00000000
C        6.14716972       2.12944226       0.00000000
C        3.68830195       0.70981360       0.00000000
C        7.37660349       2.83925584       0.00000000
C       -3.68830294      10.64720945       0.00000000
C        9.83547172       4.25888369       0.00000000
C       -3.68830276       9.22758133       0.00000000
C        6.14717025       0.70981351       0.00000000
C       -1.22943516      10.64720936       0.00000000
C        8.60603804       2.12944166       0.00000000
C        9.83547191       2.83925558       0.00000000
C       -2.45886947       8.51776888       0.00000000
C        8.60603790       0.70981362       0.00000000
C       -1.22943499       9.22758123       0.00000000
C       11.06490601       2.12944170       0.00000000
C        1.22943313      10.64720927       0.00000000
C       -2.45886882       7.09813993       0.00000000
C       -0.00000111       8.51776776       0.00000000
C       11.06490620       0.70981356       0.00000000
C        3.68830098      10.64720951       0.00000000
C        1.22943331       9.22758114       0.00000000
C       -0.00000117       7.09814004       0.00000000
C        2.45886719       8.51776769       0.00000000
C        3.68830096       9.22758126       0.00000000
C       -6.14717105      10.64720932       0.00000000
C        2.45886712       7.09813996       0.00000000
C        4.91773527       8.51776749       0.00000000
C        6.14716950       9.22758078       0.00000000
C        4.91773478       7.09814007       0.00000000
C       -4.91773699       8.51776772       0.00000000
C        7.37660379       7.09813878       0.00000000
C       -1.22943471       6.38832604       3.35461664
C       -2.45886864       5.67851181       3.35461664
C       -0.00000087       5.67851171       3.35461664
C        1.22943319       6.38832576       3.35461664
C       -0.00000042       4.25888404       3.35461664
C        3.68830137       6.38832587       3.35461664
C        2.45886702       5.67851139       3.35461664
C       -1.22943399       3.54906917       3.35461664
C        1.22943347       3.54906960       3.35461664
C        2.45886748       4.25888373       3.35461664
C        4.91773535       5.67851176       3.35461664
C        6.14716940       6.38832579       3.35461664
C        1.22943375       2.12944225       3.35461664
C        0.00000014       1.41962744       3.35461664
C        3.68830124       3.54906950       3.35461664
C        4.91773559       4.25888397       3.35461664
C        7.37660339       5.67851167       3.35461664
C       -3.68830269       6.38832571       3.35461664
C        2.45886765       1.41962779       3.35461664
C        3.68830178       2.12944172       3.35461664
C        7.37660357       4.25888397       3.35461664
C        6.14716970       3.54906964       3.35461664
C        6.14716972       2.12944226       3.35461664
C        4.91773536       1.41962778       3.35461664
C       -4.91773699       9.93739542       3.35461664
C       -3.68830294      10.64720945       3.35461664
C        8.60603767       3.54906967       3.35461664
C        9.83547172       4.25888369       3.35461664
C        7.37660387       1.41962784       3.35461664
C       -2.45886923       9.93739533       3.35461664
C       -1.22943516      10.64720936       3.35461664
C        8.60603804       2.12944166       3.35461664