154
Lattice="12.29434013 0.0 0.0 -6.14717148 10.64721006 0.0 0.0 0.0 22.0" Properties=species:S:1:pos:R:3 energy_eV=-1413.2671 mag=2.0 pbc="T T T"
C       -3.68830281       6.38832617       0.00000000
C       -2.45886941       8.51776821       0.00000000
C        7.37660287       7.09814063       0.00000000
C       -4.91773710       8.51776817       0.00000000
C       -3.68830350       9.22758206       0.00000000
C        4.91773600       0.00000023       0.00000000
C        6.14716864       9.22758255       0.00000000
C        2.45886777       0.00000016       0.00000000
C        6.14716966       2.12944229       0.00000000
C        3.68830160       0.70981459       0.00000000
C       -6.14717128      10.64720996       0.00000000
C        1.22943379       0.70981384       0.00000000
C        3.68830178       2.12944213       0.00000000
C        4.91773534       2.83925605       0.00000000
C        7.37660333       4.25888436       0.00000000
C       11.06490581       0.70981450       0.00000000
C        1.22943347       2.12944219       0.00000000
C        4.91773548       4.25888410       0.00000000
C        2.45886737       2.83925651       0.00000000
C        6.14716917       4.96869829       0.00000000
C        2.45886765       4.25888385       0.00000000
C       -0.00000074       2.83925623       0.00000000
C        3.68830113       4.96869793       0.00000000
C       -1.22943458       2.12944276       0.00000000
C        6.14716903       6.38832637       0.00000000
C        9.83547135       2.83925682       0.00000000
C        1.22943307       4.96869851       0.00000000
C       -0.00000106       4.25888461       0.00000000
C        3.68830100       6.38832643       0.00000000
C        4.91773482       7.09814042       0.00000000
C       -2.45886804       4.25888334       0.00000000
C        2.45886670       7.09814015       0.00000000
C       -1.22943527       4.96869867       0.00000000
C        4.91773474       8.51776838       0.00000000
C        1.22943276       6.38832689       0.00000000
C        8.60603740       4.96869821       0.00000000
C       -1.22943511       6.38832621       0.00000000
C        3.68830051       9.22758244       0.00000000
C        2.45886659       8.51776863       0.00000000
C       -0.00000146       7.09814095       0.00000000
C       -2.45886909       7.09813985       0.00000000
C       -0.00000129       8.51776848       0.00000000
C        1.22943217       9.22758258       0.00000000
C        9.83547168       0.00000074       0.00000000
C       -1.22943529       9.22758213       0.00000000
C        7.37660377       0.00000058       0.00000000
C        8.60603723       0.70981522       0.00000000
C        6.14716983       0.70981370       0.00000000
C        8.60603763       2.12944235       0.00000000
C        7.37660293       2.83925721       0.00000000
C       -3.68830281       6.38832617       3.35461664
C        7.37660320       5.67851226       3.35461664
C       -3.68830342       7.80795410       3.35461664
C       -2.45886941       8.51776821       3.35461664
C       -4.91773710       8.51776817       3.35461664
C        4.91773600       0.00000023       3.35461664
C       -2.45887002       9.93739615       3.35461664
C        6.14716855       7.80795490       3.35461664
C       -4.91773777       9.93739622       3.35461664
C        2.45886777       0.00000016       3.35461664
C        4.91773565       1.41962818       3.35461664
C        6.14716966       2.12944229       3.35461664
C       -6.14717128      10.64720996       3.35461664
C        4.91773440       9.93739664       3.35461664
C        2.45886724       1.41962798       3.35461664
C        3.68830178       2.12944213       3.35461664
C        6.14716931       3.54907025       3.35461664
C        7.37660333       4.25888436       3.35461664
C       -0.00000048       1.41962797       3.35461664
C        1.22943347       2.12944219       3.35461664
C        4.91773548       4.25888410       3.35461664
C        3.68830130       3.54907030       3.35461664
C        2.45886765       4.25888385       3.35461664
C        1.22943310       3.54906970       3.35461664
C        9.83547155       1.41962866       3.35461664
C       -1.22943458       2.12944276       3.35461664
C        4.91773503       5.67851225       3.35461664
C        6.14716903       6.38832637       3.35461664
C        2.45886712       5.67851210       3.35461664
C       -1.22943506       3.54907049       3.35461664
C       -0.00000106       4.25888461       3.35461664
C        3.68830100       6.38832643       3.35461664
C       -2.45886804       4.25888334       3.35461664
C       -0.00000107       5.67851151       3.35461664
C        8.60603725       3.54907067       3.35461664
C        3.68830084       7.80795406       3.35461664
C        4.91773474       8.51776838       3.35461664
C        1.22943276       6.38832689       3.35461664
C       -2.45886877       5.67851147       3.35461664
C       -1.22943511       6.38832621       3.35461664
C        2.45886659       8.51776863       3.35461664
C        1.22943247       7.80795474       3.35461664
C       -1.22943537       7.80795352       3.35461664
C       -0.00000129       8.51776848       3.35461664
C        2.45886631       9.93739649       3.35461664
C        9.83547168       0.00000074       3.35461664
C        7.37660377       0.00000058       3.35461664
C       -0.00000231       9.93739758       3.35461664
C        8.60603763       2.12944235       3.35461664
C        7.37660369       1.41962856       3.35461664
C        8.58050966       6.37726460       6.68008730
C       -2.48400967       8.50421171       6.65105692
C        7.34973977       7.08796425       6.67976189
C        7.34781070       8.50692469       6.65291167
C       -3.71612575       9.21347900       6.64205923
C       -1.25549672      10.63135107       6.68107174
C        6.11882662       9.21676119       6.65806319
C       -3.71751814      10.62809717       6.64929591
C        6.12191727       2.11626412       6.73121752
C        3.66113387       0.68506679       6.69815365
C        6.11672025      10.63532512       6.64916856
C        1.19562907       0.69272334       6.65075139
C        3.66475012       2.10792380       6.78476285
C        4.90052184       2.82155964       6.77856707
C        7.35260622       4.24991862       6.73175890
C       11.03320803       0.69942063       6.66263207
C        1.18676323       2.11150650       6.67851705
C        4.89947483       4.24793660       6.82819193
C        2.41683663       2.82926296       6.75408365
C        6.12991488       4.96476628       6.76179893
C        2.41596850       4.25654742       6.71005594
C       -0.03626759       2.82797389       6.65510333
C        3.65127647       4.96789820       6.79149734
C       11.03164819       2.11728321       6.65872791
C        6.12438660       6.38170679       6.71373047
C        9.80568921       2.82986321       6.67506422
C        1.19582979       4.96134576       6.65702567
C       -0.03244605       4.24755678       6.64709968
C        3.65894748       6.39329548       6.73115079
C        4.89120919       7.09455918       6.70671911
C        9.80789898       4.24770133       6.67307880
C        2.42773744       7.09467658       6.68883214
C       -1.25783891       4.95818164       6.65493624
C        4.88914990       8.50949534       6.68126583
C        1.19969571       6.38216992       6.66294841
C        8.58053205       4.95949885       6.69643046
C       -1.25676797       6.37760677       6.65696791
C        3.65848083       9.22008646       6.68213269
C        2.42966880       8.51217803       6.68065198
C       -0.02779392       7.08826640       6.65579285
C       -2.48508488       7.08631219       6.66188123
C       -0.02673388       8.50744438       6.66065581
C        1.19981661       9.21805145       6.67038243
C        3.65817916      10.63850804       6.67656721
C       -1.25659341       9.21342905       6.65804637
C        1.20045654      10.63747649       6.68220415
C        8.57636101       0.70091803       6.68551895
C        6.11969664       0.69633685       6.69653503
C        8.57627644       2.12049752       6.69338379
C        7.35021816       2.82987403       6.72223237
Pd       2.04506808       4.32026913      10.61723769
Pd       2.85054037       2.44769327       8.92297116
Pd       4.18853041       3.10845793      11.09843186
Pd       4.09684709       4.65567473       8.96723290
154
Lattice="12.29434013 0.0 0.0 -6.14717148 10.64721006 0.0 0.0 0.0 22.0" Properties=species:S:1:pos:R:3 energy_eV=-1413.2378 mag=2.0 pbc="T T T"
C        3.68830054      10.64720991       0.00000000
C        2.45886661       8.51776818       0.00000000
C        8.60603735       0.70981394       0.00000000
C        1.22943252      10.64720991       0.00000000
C        1.22943266       9.22758225       0.00000000
C        1.22943292       6.38832597       0.00000000
C        6.14716944       0.70981394       0.00000000
C       -0.00000141       8.51776818       0.00000000
C       -0.00000088       4.25888400       0.00000000
C       -0.00000162       7.09814005       0.00000000
C       -1.22943523      10.64720991       0.00000000
C       -1.22943516       9.22758225       0.00000000
C       -1.22943496       6.38832597       0.00000000
C       -1.22943488       4.96869830       0.00000000
C       11.06490545       2.12944202       0.00000000
C        3.68830141       0.70981394       0.00000000
C       -2.45886943       8.51776819       0.00000000
C        9.83547147       4.25888400       0.00000000
C       -2.45886954       7.09814005       0.00000000
C        9.83547138       2.83925608       0.00000000
C       -3.68830263       6.38832597       0.00000000
C       -3.68830363       9.22758226       0.00000000
C        8.60603739       4.96869830       0.00000000
C       -3.68830424      10.64720992       0.00000000
C        8.60603742       2.12944201       0.00000000
C        1.22943304       0.70981394       0.00000000
C        7.37660258       7.09814005       0.00000000
C        7.37660220       8.51776819       0.00000000
C        7.37660309       4.25888399       0.00000000
C        7.37660323       2.83925608       0.00000000
C       -6.14717060      10.64720992       0.00000000
C        6.14716913       4.96869830       0.00000000
C        6.14716800       9.22758224       0.00000000
C        6.14716941       2.12944201       0.00000000
C        6.14716828       6.38832596       0.00000000
C       11.06490585       0.70981393       0.00000000
C        4.91773464       8.51776818       0.00000000
C        4.91773520       2.83925608       0.00000000
C        4.91773482       4.25888399       0.00000000
C        4.91773408       7.09814004       0.00000000
C        3.68830092       9.22758225       0.00000000
C        3.68830073       6.38832596       0.00000000
C        3.68830063       4.96869829       0.00000000
C        3.68830090       2.12944201       0.00000000
C        2.45886700       7.09814004       0.00000000
C        2.45886680       4.25888399       0.00000000
C        2.45886623       2.83925608       0.00000000
C        1.22943355       4.96869830       0.00000000
C        1.22943335       2.12944201       0.00000000
C       -0.00000180       2.83925608       0.00000000
C        3.68830054      10.64720991       3.35461664
C        9.83547165       1.41962801       3.35461664
C        2.45886648       9.93739632       3.35461664
C        2.45886661       8.51776818       3.35461664
C        1.22943252      10.64720991       3.35461664
C        1.22943292       6.38832597       3.35461664
C        1.22943256       7.80795459       3.35461664
C        7.37660290       1.41962801       3.35461664
C       -0.00000166       9.93739632       3.35461664
C       -0.00000141       8.51776818       3.35461664
C       -0.00000101       5.67851213       3.35461664
C       -0.00000088       4.25888400       3.35461664
C       -1.22943523      10.64720991       3.35461664
C        4.91773520       1.41962801       3.35461664
C       -1.22943533       7.80795459       3.35461664
C       -1.22943496       6.38832597       3.35461664
C       -1.22943483       3.54907016       3.35461664
C       11.06490545       2.12944202       3.35461664
C       -2.45886945       9.93739632       3.35461664
C       -2.45886943       8.51776819       3.35461664
C        9.83547147       4.25888400       3.35461664
C       -2.45886916       5.67851214       3.35461664
C       -3.68830263       6.38832597       3.35461664
C       -3.68830302       7.80795459       3.35461664
C        2.45886710       1.41962800       3.35461664
C       -3.68830424      10.64720992       3.35461664
C        8.60603729       3.54907015       3.35461664
C        8.60603742       2.12944201       3.35461664
C        7.37660319       5.67851213       3.35461664
C       -4.91773807       9.93739632       3.35461664
C        7.37660220       8.51776819       3.35461664
C        7.37660309       4.25888399       3.35461664
C       -6.14717060      10.64720992       3.35461664
C        6.14716934       7.80795458       3.35461664
C       -0.00000094       1.41962801       3.35461664
C        6.14716950       3.54907015       3.35461664
C        6.14716941       2.12944201       3.35461664
C        6.14716828       6.38832596       3.35461664
C        4.91773522       9.93739632       3.35461664
C        4.91773464       8.51776818       3.35461664
C        4.91773482       4.25888399       3.35461664
C        4.91773445       5.67851212       3.35461664
C        3.68830130       7.80795458       3.35461664
C        3.68830073       6.38832596       3.35461664
C        3.68830101       3.54907015       3.35461664
C        3.68830090       2.12944201       3.35461664
C        2.45886680       4.25888399       3.35461664
C        2.45886547       5.67851213       3.35461664
C        1.22943335       2.12944201       3.35461664
C        1.22943297       3.54906992       3.35461664
C        9.80725936       0.03436965       6.63051409
C        2.42771784       8.55732743       6.63010896
C        8.57685297       0.74410597       6.63931970
C        7.34940375       0.03404943       6.65049209
C        1.19923833       9.26390121       6.64030105
C        1.19591399       6.43407448       6.67158432
C        6.12129363       0.74075921       6.68042878
C       -0.02927146       8.55502157       6.64710077
C       -0.03665695       4.28857956       6.68872679
C       -0.03175084       7.13712844       6.65484598
C        4.88990468       0.03139009       6.67539079
C       -1.25887767       9.26220740       6.65509633
C       -1.25867141       6.42331010       6.65893586
C       -1.26032944       5.00253073       6.66668861
C       11.03598285       2.16348066       6.63754092
C        3.65779008       0.73682771       6.67766537
C       -2.48741620       8.55156956       6.64845712
C        9.80725398       4.29216382       6.64921932
C       -2.48577727       7.13252530       6.64933627
C        9.80809490       2.87410021       6.64112916
C        8.58114797       6.42164044       6.64934967
C       -3.71761988       9.25938129       6.65481300
C        8.58083916       5.00344140       6.64831086
C        2.42813077       0.03030236       6.66058705
C        8.57802770       2.16280538       6.64278006
C        1.20005491       0.73963487       6.65253903
C        7.35424260       7.13238720       6.65885691
C        7.34924440       8.55196379       6.66038530
C        7.35479466       4.29222293       6.65123363
C        7.35289937       2.87102483       6.66060559
C       12.26478535       0.03378115       6.64620290
C        6.13460875       5.00498540       6.66474644
C        6.11943824       9.26354747       6.66271707
C        6.12701147       2.15668018       6.70328764
C        6.13209346       6.42013667       6.67774286
C       11.03643071       0.74265908       6.63540368
C        4.89013221       8.56032621       6.67740656
C        4.89146963       2.86152254       6.74490285
C        4.89346365       4.29371724       6.70027448
C        4.89783080       7.13761472       6.72076460
C        3.65944133       9.26629529       6.63741856
C        3.65601888       6.42361813       6.68403269
C        3.65990918       5.00118554       6.61670155
C        3.65311638       2.15109307       6.69590897
C        2.42058999       7.14429650       6.64669152
C        2.43072167       4.28681986       6.69643299
C        2.42592619       2.85652236       6.66990428
C        1.19210268       5.00607738       6.72814323
C        1.19793900       2.15713745       6.65085980
C       -0.03203766       2.86985021       6.65240432
Pd       3.64662964       5.04128481      10.99438676
Pd       2.13948133       4.72541822       8.91608880
Pd       4.15568282       6.48044035       8.90822967
Pd       4.66459452       3.85881867       8.92765350
154
Lattice="12.29434013 0.0 0.0 -6.14717148 10.64721006 0.0 0.0 0.0 22.0" Properties=species:S:1:pos:R:3 energy_eV=-1413.1804 mag=2.0 pbc="T T T"
C        3.68830054      10.64720991       0.00000000
C        2.45886661       8.51776818       0.00000000
C        8.60603735       0.70981394       0.00000000
C        1.22943252      10.64720991       0.00000000
C        1.22943266       9.22758225       0.00000000
C        1.22943292       6.38832597       0.00000000
C        6.14716944       0.70981394       0.00000000
C       -0.00000141       8.51776818       0.00000000
C       -0.00000088       4.25888400       0.00000000
C       -0.00000162       7.09814005       0.00000000
C       -1.22943523      10.64720991       0.00000000
C       -1.22943516       9.22758225       0.00000000
C       -1.22943496       6.38832597       0.00000000
C       -1.22943488       4.96869830       0.00000000
C       11.06490545       2.12944202       0.00000000
C        3.68830141       0.70981394       0.00000000
C       -2.45886943       8.51776819       0.00000000
C        9.83547147       4.25888400       0.00000000
C       -2.45886954       7.09814005       0.00000000
C        9.83547138       2.83925608       0.00000000
C       -3.68830263       6.38832597       0.00000000
C       -3.68830363       9.22758226       0.00000000
C        8.60603739       4.96869830       0.00000000
C       -3.68830424      10.64720992       0.00000000
C        8.60603742       2.12944201       0.00000000
C        1.22943304       0.70981394       0.00000000
C        7.37660258       7.09814005       0.00000000
C        7.37660220       8.51776819       0.00000000
C        7.37660309       4.25888399       0.00000000
C        7.37660323       2.83925608       0.00000000
C       -6.14717060      10.64720992       0.00000000
C        6.14716913       4.96869830       0.00000000
C        6.14716800       9.22758224       0.00000000
C        6.14716941       2.12944201       0.00000000
C        6.14716828       6.38832596       0.00000000
C       11.06490585       0.70981393       0.00000000
C        4.91773464       8.51776818       0.00000000
C        4.91773520       2.83925608       0.00000000
C        4.91773482       4.25888399       0.00000000
C        4.91773408       7.09814004       0.00000000
C        3.68830092       9.22758225       0.00000000
C        3.68830073       6.38832596       0.00000000
C        3.68830063       4.96869829       0.00000000
C        3.68830090       2.12944201       0.00000000
C        2.45886700       7.09814004       0.00000000
C        2.45886680       4.25888399       0.00000000
C        2.45886623       2.83925608       0.00000000
C        1.22943355       4.96869830       0.00000000
C        1.22943335       2.12944201       0.00000000
C       -0.00000180       2.83925608       0.00000000
C        3.68830054      10.64720991       3.35461664
C        9.83547165       1.41962801       3.35461664
C        2.45886648       9.93739632       3.35461664
C        2.45886661       8.51776818       3.35461664
C        1.22943252      10.64720991       3.35461664
C        1.22943292       6.38832597       3.35461664
C        1.22943256       7.80795459       3.35461664
C        7.37660290       1.41962801       3.35461664
C       -0.00000166       9.93739632       3.35461664
C       -0.00000141       8.51776818       3.35461664
C       -0.00000101       5.67851213       3.35461664
C       -0.00000088       4.25888400       3.35461664
C       -1.22943523      10.64720991       3.35461664
C        4.91773520       1.41962801       3.35461664
C       -1.22943533       7.80795459       3.35461664
C       -1.22943496       6.38832597       3.35461664
C       -1.22943483       3.54907016       3.35461664
C       11.06490545       2.12944202       3.35461664
C       -2.45886945       9.93739632       3.35461664
C       -2.45886943       8.51776819       3.35461664
C        9.83547147       4.25888400       3.35461664
C       -2.45886916       5.67851214       3.35461664
C       -3.68830263       6.38832597       3.35461664
C       -3.68830302       7.80795459       3.35461664
C        2.45886710       1.41962800       3.35461664
C       -3.68830424      10.64720992       3.35461664
C        8.60603729       3.54907015       3.35461664
C        8.60603742       2.12944201       3.35461664
C        7.37660319       5.67851213       3.35461664
C       -4.91773807       9.93739632       3.35461664
C        7.37660220       8.51776819       3.35461664
C        7.37660309       4.25888399       3.35461664
C       -6.14717060      10.64720992       3.35461664
C        6.14716934       7.80795458       3.35461664
C       -0.00000094       1.41962801       3.35461664
C        6.14716950       3.54907015       3.35461664
C        6.14716941       2.12944201       3.35461664
C        6.14716828       6.38832596       3.35461664
C        4.91773522       9.93739632       3.35461664
C        4.91773464       8.51776818       3.35461664
C        4.91773482       4.25888399       3.35461664
C        4.91773445       5.67851212       3.35461664
C        3.68830130       7.80795458       3.35461664
C        3.68830073       6.38832596       3.35461664
C        3.68830101       3.54907015       3.35461664
C        3.68830090       2.12944201       3.35461664
C        2.45886680       4.25888399       3.35461664
C        2.45886547       5.67851213       3.35461664
C        1.22943335       2.12944201       3.35461664
C        1.22943297       3.54906992       3.35461664
C        9.86448485       0.01597491       6.62188948
C        2.49116343       8.53778610       6.65779648
C        8.63553557       0.72419042       6.65733566
C        7.40633530       0.01380822       6.69351013
C        1.25865292       9.24316506       6.69586495
C        1.26003713       6.41125936       6.73724464
C        6.17802463       0.72094067       6.71981935
C        0.03002297       8.53327633       6.71427855
C        0.01708992       4.26767553       6.65290922
C        0.02454509       7.11622672       6.71693245
C        4.94926954       0.01038056       6.72589290
C       -1.19991595       9.23950940       6.71048887
C       -1.20067753       6.40418911       6.67734935
C       -1.20283978       4.98176386       6.65142358
C       -1.20400844       2.14175672       6.61249343
C        3.71841892       0.71216503       6.72299699
C       -2.42778788       8.53111920       6.67841461
C       -2.42982216       4.27181959       6.63741882
C       -2.42764058       7.11218784       6.66063123
C        9.86320502       2.85369152       6.63062592
C       -3.65540211       6.40292667       6.62973853
C       -3.65731890       9.24134595       6.64722288
C        8.63889330       4.98437586       6.63671412
C        2.48976007       0.00922453       6.66287632
C        8.63522116       2.14340693       6.65350980
C        1.25604428       0.72034712       6.63108327
C        7.41046086       7.11459918       6.60244852
C       -4.88640319       8.53452313       6.60542754
C        7.41243872       4.27410104       6.65263378
C        7.40914226       2.85308896       6.67554544
C        0.02861645       0.01437783       6.60180323
C        6.19053411       4.98891015       6.64939651
C        6.17932965       9.24371776       6.59234559
C        6.18150668       2.14133501       6.71085069
C        6.18532424       6.40832673       6.59533196
C       11.09290748       0.72381071       6.60461290
C        4.95046708       8.53715737       6.58940538
C        4.95890561       2.84733035       6.73367311
C        4.96225463       4.27278795       6.71336609
C        4.95374656       7.12206681       6.58785059
C        3.71901541       9.24579268       6.61807604
C        3.72413859       6.42033436       6.62547932
C        3.72145802       4.99066448       6.67582343
C        3.72504412       2.13559828       6.76446111
C        2.49449121       7.12343489       6.66947616
C        2.48838682       4.27526928       6.63654927
C        2.48336452       2.85155616       6.70668835
C        1.25433811       4.98098536       6.69439557
C        1.24766829       2.13512868       6.64725600
C        0.02167657       2.84939257       6.62430865
Pd       2.80311078       4.31160959      11.01685113
Pd       1.55406013       5.20496877       8.94058363
Pd       2.76448152       2.75158294       8.93667002
Pd       4.18790085       4.90846275       8.90404193
154
Lattice="12.29434013 0.0 0.0 -6.14717148 10.64721006 0.0 0.0 0.0 22.0" Properties=species:S:1:pos:R:3 energy_eV=-1413.1739 mag=2.0 pbc="T T T"
C       -1.22943471       6.38832604       0.00000000
C        1.22943319       6.38832576       0.00000000
C       -1.22943429       4.96869751       0.00000000
C       -0.00000042       4.25888404       0.00000000
C        1.22943324       4.96869783       0.00000000
C        3.68830137       6.38832587       0.00000000
C       -0.00000006       2.83925560       0.00000000
C        2.45886748       4.25888373       0.00000000
C        6.14716940       6.38832579       0.00000000
C        3.68830172       4.96869743       0.00000000
C        1.22943375       2.12944225       0.00000000
C        2.45886743       2.83925599       0.00000000
C        4.91773559       4.25888397       0.00000000
C        6.14716928       4.96869772       0.00000000
C       -3.68830269       6.38832571       0.00000000
C        1.22943424       0.70981358       0.00000000
C        3.68830178       2.12944172       0.00000000
C        7.37660357       4.25888397       0.00000000
C        4.91773595       2.83925552       0.00000000
C        8.60603755       4.96869769       0.00000000
C        6.14716972       2.12944226       0.00000000
C        3.68830195       0.70981360       0.00000000
C        7.37660349       2.83925584       0.00000000
C       -3.68830294      10.64720945       0.00000000
C        9.83547172       4.25888369       0.00000000
C       -3.68830276       9.22758133       0.00000000
C        6.14717025       0.70981351       0.00000000
C       -1.22943516      10.64720936       0.00000000
C        8.60603804       2.12944166       0.00000000
C        9.83547191       2.83925558       0.00000000
C       -2.45886947       8.51776888       0.00000000
C        8.60603790       0.70981362       0.00000000
C       -1.22943499       9.22758123       0.00000000
C       11.06490601       2.12944170       0.00000000
C        1.22943313      10.64720927       0.00000000
C       -2.45886882       7.09813993       0.00000000
C       -0.00000111       8.51776776       0.00000000
C       11.06490620       0.70981356       0.00000000
C        3.68830098      10.64720951       0.00000000
C        1.22943331       9.22758114       0.00000000
C       -0.00000117       7.09814004       0.00000000
C        2.45886719       8.51776769       0.00000000
C        3.68830096       9.22758126       0.00000000
C       -6.14717105      10.64720932       0.00000000
C        2.45886712       7.09813996       0.00000000
C        4.91773527       8.51776749       0.00000000
C        6.14716950       9.22758078       0.00000000
C        4.91773478       7.09814007       0.00000000
C       -4.91773699       8.51776772       0.00000000
C        7.37660379       7.09813878       0.00000000
C       -1.22943471       6.38832604       3.35461664
C       -2.45886864       5.67851181       3.35461664
C       -0.00000087       5.67851171       3.35461664
C        1.22943319       6.38832576       3.35461664
C       -0.00000042       4.25888404       3.35461664
C        3.68830137       6.38832587       3.35461664
C        2.45886702       5.67851139       3.35461664
C       -1.22943399       3.54906917       3.35461664
C        1.22943347       3.54906960       3.35461664
C        2.45886748       4.25888373       3.35461664
C        4.91773535       5.67851176       3.35461664
C        6.14716940       6.38832579       3.35461664
C        1.22943375       2.12944225       3.35461664
C        0.00000014       1.41962744       3.35461664
C        3.68830124       3.54906950       3.35461664
C        4.91773559       4.25888397       3.35461664
C        7.37660339       5.67851167       3.35461664
C       -3.68830269       6.38832571       3.35461664
C        2.45886765       1.41962779       3.35461664
C        3.68830178       2.12944172       3.35461664
C        7.37660357       4.25888397       3.35461664
C        6.14716970       3.54906964       3.35461664
C        6.14716972       2.12944226       3.35461664
C        4.91773536       1.41962778       3.35461664
C       -4.91773699       9.93739542       3.35461664
C       -3.68830294      10.64720945       3.35461664
C        8.60603767       3.54906967       3.35461664
C        9.83547172       4.25888369       3.35461664
C        7.37660387       1.41962784       3.35461664
C       -2.45886923       9.93739533       3.35461664
C       -1.22943516      10.64720936       3.35461664
C        8.60603804       2.12944166       3.35461664