154
Lattice="12.29434013 0.0 0.0 -6.14717148 10.64721006 0.0 0.0 0.0 22.0" Properties=species:S:1:pos:R:3 energy_eV=-1414.6897 mag=2.0 pbc="T T T"
C        3.68830054      10.64720991       0.00000000
C        2.45886661       8.51776818       0.00000000
C        8.60603735       0.70981394       0.00000000
C        1.22943252      10.64720991       0.00000000
C        1.22943266       9.22758225       0.00000000
C        1.22943292       6.38832597       0.00000000
C        6.14716944       0.70981394       0.00000000
C       -0.00000141       8.51776818       0.00000000
C       -0.00000088       4.25888400       0.00000000
C       -0.00000162       7.09814005       0.00000000
C       -1.22943523      10.64720991       0.00000000
C       -1.22943516       9.22758225       0.00000000
C       -1.22943496       6.38832597       0.00000000
C       -1.22943488       4.96869830       0.00000000
C       11.06490545       2.12944202       0.00000000
C        3.68830141       0.70981394       0.00000000
C       -2.45886943       8.51776819       0.00000000
C        9.83547147       4.25888400       0.00000000
C       -2.45886954       7.09814005       0.00000000
C        9.83547138       2.83925608       0.00000000
C       -3.68830263       6.38832597       0.00000000
C       -3.68830363       9.22758226       0.00000000
C        8.60603739       4.96869830       0.00000000
C       -3.68830424      10.64720992       0.00000000
C        8.60603742       2.12944201       0.00000000
C        1.22943304       0.70981394       0.00000000
C        7.37660258       7.09814005       0.00000000
C        7.37660220       8.51776819       0.00000000
C        7.37660309       4.25888399       0.00000000
C        7.37660323       2.83925608       0.00000000
C       -6.14717060      10.64720992       0.00000000
C        6.14716913       4.96869830       0.00000000
C        6.14716800       9.22758224       0.00000000
C        6.14716941       2.12944201       0.00000000
C        6.14716828       6.38832596       0.00000000
C       11.06490585       0.70981393       0.00000000
C        4.91773464       8.51776818       0.00000000
C        4.91773520       2.83925608       0.00000000
C        4.91773482       4.25888399       0.00000000
C        4.91773408       7.09814004       0.00000000
C        3.68830092       9.22758225       0.00000000
C        3.68830073       6.38832596       0.00000000
C        3.68830063       4.96869829       0.00000000
C        3.68830090       2.12944201       0.00000000
C        2.45886700       7.09814004       0.00000000
C        2.45886680       4.25888399       0.00000000
C        2.45886623       2.83925608       0.00000000
C        1.22943355       4.96869830       0.00000000
C        1.22943335       2.12944201       0.00000000
C       -0.00000180       2.83925608       0.00000000
C        3.68830054      10.64720991       3.35461664
C        9.83547165       1.41962801       3.35461664
C        2.45886648       9.93739632       3.35461664
C        2.45886661       8.51776818       3.35461664
C        1.22943252      10.64720991       3.35461664
C        1.22943292       6.38832597       3.35461664
C        1.22943256       7.80795459       3.35461664
C        7.37660290       1.41962801       3.35461664
C       -0.00000166       9.93739632       3.35461664
C       -0.00000141       8.51776818       3.35461664
C       -0.00000101       5.67851213       3.35461664
C       -0.00000088       4.25888400       3.35461664
C       -1.22943523      10.64720991       3.35461664
C        4.91773520       1.41962801       3.35461664
C       -1.22943533       7.80795459       3.35461664
C       -1.22943496       6.38832597       3.35461664
C       -1.22943483       3.54907016       3.35461664
C       11.06490545       2.12944202       3.35461664
C       -2.45886945       9.93739632       3.35461664
C       -2.45886943       8.51776819       3.35461664
C        9.83547147       4.25888400       3.35461664
C       -2.45886916       5.67851214       3.35461664
C       -3.68830263       6.38832597       3.35461664
C       -3.68830302       7.80795459       3.35461664
C        2.45886710       1.41962800       3.35461664
C       -3.68830424      10.64720992       3.35461664
C        8.60603729       3.54907015       3.35461664
C        8.60603742       2.12944201       3.35461664
C        7.37660319       5.67851213       3.35461664
C       -4.91773807       9.93739632       3.35461664
C        7.37660220       8.51776819       3.35461664
C        7.37660309       4.25888399       3.35461664
C       -6.14717060      10.64720992       3.35461664
C        6.14716934       7.80795458       3.35461664
C       -0.00000094       1.41962801       3.35461664
C        6.14716950       3.54907015       3.35461664
C        6.14716941       2.12944201       3.35461664
C        6.14716828       6.38832596       3.35461664
C        4.91773522       9.93739632       3.35461664
C        4.91773464       8.51776818       3.35461664
C        4.91773482       4.25888399       3.35461664
C        4.91773445       5.67851212       3.35461664
C        3.68830130       7.80795458       3.35461664
C        3.68830073       6.38832596       3.35461664
C        3.68830101       3.54907015       3.35461664
C        3.68830090       2.12944201       3.35461664
C        2.45886680       4.25888399       3.35461664
C        2.45886547       5.67851213       3.35461664
C        1.22943335       2.12944201       3.35461664
C        1.22943297       3.54906992       3.35461664
C        3.76367061      10.59953083       6.61051024
C        2.53582298       8.48889559       6.69658510
C        8.67857283       0.66300097       6.61651476
C        1.30435541      10.60293092       6.62470689
C        1.30401343       9.18517051       6.65394201
C        1.28690153       6.34743734       6.74420133
C        6.22102534       0.65968619       6.61714213
C        0.07689246       8.47117796       6.64482349
C        0.05703641       4.19517639       6.69635560
C        0.07251311       7.04869058       6.66465246
C       -1.15061042      10.59521042       6.61959332
C       -1.14993063       9.17548754       6.62547060
C       -1.15683570       6.33382176       6.64155064
C       -1.16165118       4.91378455       6.64985327
C       -1.15684857       2.07696671       6.60878854
C        3.76602932       0.65150511       6.62474396
C       -2.37915360       8.46504563       6.62106297
C       -2.38927279       4.20515606       6.62004497
C       -2.37969264       7.04500883       6.62166183
C        9.90622059       2.78894800       6.61423579
C       -3.60950165       6.33587801       6.61338635
C       -3.60781625       9.17430025       6.61811245
C        8.68050482       4.91951063       6.61223051
C       -3.60864217      10.59152908       6.62130830
C        8.67800349       2.08088013       6.61132990
C        1.30645341       0.65460856       6.61546914
C        7.46009731       7.04961081       6.61743034
C       -4.83568494       8.46627062       6.61688966
C        7.45096037       4.21012548       6.61000576
C        7.44999120       2.79023306       6.61111694
C       -6.07100721      10.59621200       6.60421559
C        6.22813833       4.92080205       6.62182398
C        6.22735947       9.17797275       6.61237760
C        6.22109530       2.07935350       6.61237418
C        6.23320529       6.34042809       6.63604658
C       11.14080934       0.65874704       6.60139892
C        5.00248453       8.47408297       6.63659090
C        4.99392259       2.78293702       6.62476919
C        4.99919933       4.20529564       6.63408981
C        5.01434464       7.05890018       6.68581966
C        3.76669042       9.18692131       6.63800084
C        3.78564540       6.33671413       6.80308286
C        3.78501904       4.90613035       6.71229371
C        3.76728626       2.06841254       6.64214438
C        2.52654487       7.06366494       6.81700305
C        2.54659469       4.19022191       6.80232030
C        2.53490885       2.76449517       6.69010793
C        1.28656848       4.91555923       6.82063903
C        1.30313104       2.06696680       6.63975465
C        0.06781872       2.78033361       6.63799310
Pt       3.78207797       4.93329802      10.75847908
Pt       3.20400904       6.69661537       8.91450654
Pt       1.57750504       6.15565795      10.89694599
Pt       1.97166407       4.49080994       8.91671231
154
Lattice="12.29434013 0.0 0.0 -6.14717148 10.64721006 0.0 0.0 0.0 22.0" Properties=species:S:1:pos:R:3 energy_eV=-1414.5905 mag=0.0048 pbc="T T T"
C        3.68830054      10.64720991       0.00000000
C        2.45886661       8.51776818       0.00000000
C        8.60603735       0.70981394       0.00000000
C        1.22943252      10.64720991       0.00000000
C        1.22943266       9.22758225       0.00000000
C        1.22943292       6.38832597       0.00000000
C        6.14716944       0.70981394       0.00000000
C       -0.00000141       8.51776818       0.00000000
C       -0.00000088       4.25888400       0.00000000
C       -0.00000162       7.09814005       0.00000000
C       -1.22943523      10.64720991       0.00000000
C       -1.22943516       9.22758225       0.00000000
C       -1.22943496       6.38832597       0.00000000
C       -1.22943488       4.96869830       0.00000000
C       11.06490545       2.12944202       0.00000000
C        3.68830141       0.70981394       0.00000000
C       -2.45886943       8.51776819       0.00000000
C        9.83547147       4.25888400       0.00000000
C       -2.45886954       7.09814005       0.00000000
C        9.83547138       2.83925608       0.00000000
C       -3.68830263       6.38832597       0.00000000
C       -3.68830363       9.22758226       0.00000000
C        8.60603739       4.96869830       0.00000000
C       -3.68830424      10.64720992       0.00000000
C        8.60603742       2.12944201       0.00000000
C        1.22943304       0.70981394       0.00000000
C        7.37660258       7.09814005       0.00000000
C        7.37660220       8.51776819       0.00000000
C        7.37660309       4.25888399       0.00000000
C        7.37660323       2.83925608       0.00000000
C       -6.14717060      10.64720992       0.00000000
C        6.14716913       4.96869830       0.00000000
C        6.14716800       9.22758224       0.00000000
C        6.14716941       2.12944201       0.00000000
C        6.14716828       6.38832596       0.00000000
C       11.06490585       0.70981393       0.00000000
C        4.91773464       8.51776818       0.00000000
C        4.91773520       2.83925608       0.00000000
C        4.91773482       4.25888399       0.00000000
C        4.91773408       7.09814004       0.00000000
C        3.68830092       9.22758225       0.00000000
C        3.68830073       6.38832596       0.00000000
C        3.68830063       4.96869829       0.00000000
C        3.68830090       2.12944201       0.00000000
C        2.45886700       7.09814004       0.00000000
C        2.45886680       4.25888399       0.00000000
C        2.45886623       2.83925608       0.00000000
C        1.22943355       4.96869830       0.00000000
C        1.22943335       2.12944201       0.00000000
C       -0.00000180       2.83925608       0.00000000
C        3.68830054      10.64720991       3.35461664
C        9.83547165       1.41962801       3.35461664
C        2.45886648       9.93739632       3.35461664
C        2.45886661       8.51776818       3.35461664
C        1.22943252      10.64720991       3.35461664
C        1.22943292       6.38832597       3.35461664
C        1.22943256       7.80795459       3.35461664
C        7.37660290       1.41962801       3.35461664
C       -0.00000166       9.93739632       3.35461664
C       -0.00000141       8.51776818       3.35461664
C       -0.00000101       5.67851213       3.35461664
C       -0.00000088       4.25888400       3.35461664
C       -1.22943523      10.64720991       3.35461664
C        4.91773520       1.41962801       3.35461664
C       -1.22943533       7.80795459       3.35461664
C       -1.22943496       6.38832597       3.35461664
C       -1.22943483       3.54907016       3.35461664
C       11.06490545       2.12944202       3.35461664
C       -2.45886945       9.93739632       3.35461664
C       -2.45886943       8.51776819       3.35461664
C        9.83547147       4.25888400       3.35461664
C       -2.45886916       5.67851214       3.35461664
C       -3.68830263       6.38832597       3.35461664
C       -3.68830302       7.80795459       3.35461664
C        2.45886710       1.41962800       3.35461664
C       -3.68830424      10.64720992       3.35461664
C        8.60603729       3.54907015       3.35461664
C        8.60603742       2.12944201       3.35461664
C        7.37660319       5.67851213       3.35461664
C       -4.91773807       9.93739632       3.35461664
C        7.37660220       8.51776819       3.35461664
C        7.37660309       4.25888399       3.35461664
C       -6.14717060      10.64720992       3.35461664
C        6.14716934       7.80795458       3.35461664
C       -0.00000094       1.41962801       3.35461664
C        6.14716950       3.54907015       3.35461664
C        6.14716941       2.12944201       3.35461664
C        6.14716828       6.38832596       3.35461664
C        4.91773522       9.93739632       3.35461664
C        4.91773464       8.51776818       3.35461664
C        4.91773482       4.25888399       3.35461664
C        4.91773445       5.67851212       3.35461664
C        3.68830130       7.80795458       3.35461664
C        3.68830073       6.38832596       3.35461664
C        3.68830101       3.54907015       3.35461664
C        3.68830090       2.12944201       3.35461664
C        2.45886680       4.25888399       3.35461664
C        2.45886547       5.67851213       3.35461664
C        1.22943335       2.12944201       3.35461664
C        1.22943297       3.54906992       3.35461664
C        3.71794411      10.57508135       6.63253882
C        2.48742630       8.46735378       6.72853582
C        8.63700392       0.63851284       6.62149191
C        1.26070894      10.57854436       6.62084743
C        1.26087934       9.16417848       6.65566823
C        1.24479846       6.30498240       6.79550079
C        6.17712373       0.63732137       6.61797693
C        0.02487210       8.44940097       6.66100354
C        0.02540349       4.17648549       6.60306293
C        0.01267461       7.03223548       6.69053398
C       -1.19855692      10.57715492       6.62081301
C       -1.20148563       9.15755507       6.63087099
C       -1.20746886       6.31544147       6.63616471
C       -1.20226278       4.89299965       6.61454635
C       11.09274086       2.05308854       6.60125922
C        3.71890476       0.63813876       6.61875833
C       -2.43000619       8.44749917       6.62777458
C        9.86685220       4.18658611       6.61383542
C       -2.43179980       7.02554195       6.62583308
C        9.86621068       2.76379811       6.61058481
C        8.63687666       6.31484073       6.62584204
C       -3.65807014       9.15646471       6.62464206
C        8.63869657       4.89704298       6.62821081
C       -3.66008744      10.57310271       6.61629779
C        8.63862111       2.05716504       6.61772086
C        1.25838795       0.63267129       6.60715150
C        7.41016865       7.02746337       6.63990203
C        7.40843952       8.44573102       6.63526735
C        7.41079265       4.18479739       6.64556377
C        7.41010402       2.76623501       6.63260022
C        6.17630448      10.57315982       6.61744519
C        6.18365910       4.89262216       6.68780679
C        6.17873671       9.15396327       6.64270419
C        6.17977087       2.05420276       6.63040090
C        6.18500446       6.32072947       6.68265299
C       11.09531900       0.63510845       6.61466695
C        4.95313578       8.44580686       6.69191124
C        4.95253686       2.75983954       6.65368528
C        4.96341963       4.17398114       6.71739049
C        4.96808230       7.03425928       6.74968370
C        3.71777338       9.15929973       6.68453325
C        3.74078960       6.31489820       6.91644140
C        3.71721997       4.87780158       6.82531615
C        3.71811408       2.05219915       6.62890801
C        2.47548961       7.04516991       6.89898613
C        2.47167317       4.16820887       6.67099369
C        2.48404764       2.75691138       6.61793693
C        1.25377194       4.87119496       6.65785225
C        1.25578438       2.04996664       6.59805551
C        0.02732065       2.75939430       6.59384873
Pt       3.77190862       5.41880252       8.96777749
Pt       1.50986972       6.53082426      11.39704606
Pt       3.64431112       5.34232558      11.43050727
Pt       1.62292585       6.65924503       8.93481422
154
Lattice="12.29434013 0.0 0.0 -6.14717148 10.64721006 0.0 0.0 0.0 22.0" Properties=species:S:1:pos:R:3 energy_eV=-1414.5299 mag=0.0 pbc="T T T"
C        3.68830054      10.64720991       0.00000000
C        2.45886661       8.51776818       0.00000000
C        8.60603735       0.70981394       0.00000000
C        1.22943252      10.64720991       0.00000000
C        1.22943266       9.22758225       0.00000000
C        1.22943292       6.38832597       0.00000000
C        6.14716944       0.70981394       0.00000000
C       -0.00000141       8.51776818       0.00000000
C       -0.00000088       4.25888400       0.00000000
C       -0.00000162       7.09814005       0.00000000
C       -1.22943523      10.64720991       0.00000000
C       -1.22943516       9.22758225       0.00000000
C       -1.22943496       6.38832597       0.00000000
C       -1.22943488       4.96869830       0.00000000
C       11.06490545       2.12944202       0.00000000
C        3.68830141       0.70981394       0.00000000
C       -2.45886943       8.51776819       0.00000000
C        9.83547147       4.25888400       0.00000000
C       -2.45886954       7.09814005       0.00000000
C        9.83547138       2.83925608       0.00000000
C       -3.68830263       6.38832597       0.00000000
C       -3.68830363       9.22758226       0.00000000
C        8.60603739       4.96869830       0.00000000
C       -3.68830424      10.64720992       0.00000000
C        8.60603742       2.12944201       0.00000000
C        1.22943304       0.70981394       0.00000000
C        7.37660258       7.09814005       0.00000000
C        7.37660220       8.51776819       0.00000000
C        7.37660309       4.25888399       0.00000000
C        7.37660323       2.83925608       0.00000000
C       -6.14717060      10.64720992       0.00000000
C        6.14716913       4.96869830       0.00000000
C        6.14716800       9.22758224       0.00000000
C        6.14716941       2.12944201       0.00000000
C        6.14716828       6.38832596       0.00000000
C       11.06490585       0.70981393       0.00000000
C        4.91773464       8.51776818       0.00000000
C        4.91773520       2.83925608       0.00000000
C        4.91773482       4.25888399       0.00000000
C        4.91773408       7.09814004       0.00000000
C        3.68830092       9.22758225       0.00000000
C        3.68830073       6.38832596       0.00000000
C        3.68830063       4.96869829       0.00000000
C        3.68830090       2.12944201       0.00000000
C        2.45886700       7.09814004       0.00000000
C        2.45886680       4.25888399       0.00000000
C        2.45886623       2.83925608       0.00000000
C        1.22943355       4.96869830       0.00000000
C        1.22943335       2.12944201       0.00000000
C       -0.00000180       2.83925608       0.00000000
C        3.68830054      10.64720991       3.35461664
C        9.83547165       1.41962801       3.35461664
C        2.45886648       9.93739632       3.35461664
C        2.45886661       8.51776818       3.35461664
C        1.22943252      10.64720991       3.35461664
C        1.22943292       6.38832597       3.35461664
C        1.22943256       7.80795459       3.35461664
C        7.37660290       1.41962801       3.35461664
C       -0.00000166       9.93739632       3.35461664
C       -0.00000141       8.51776818       3.35461664
C       -0.00000101       5.67851213       3.35461664
C       -0.00000088       4.25888400       3.35461664
C       -1.22943523      10.64720991       3.35461664
C        4.91773520       1.41962801       3.35461664
C       -1.22943533       7.80795459       3.35461664
C       -1.22943496       6.38832597       3.35461664
C       -1.22943483       3.54907016       3.35461664
C       11.06490545       2.12944202       3.35461664
C       -2.45886945       9.93739632       3.35461664
C       -2.45886943       8.51776819       3.35461664
C        9.83547147       4.25888400       3.35461664
C       -2.45886916       5.67851214       3.35461664
C       -3.68830263       6.38832597       3.35461664
C       -3.68830302       7.80795459       3.35461664
C        2.45886710       1.41962800       3.35461664
C       -3.68830424      10.64720992       3.35461664
C        8.60603729       3.54907015       3.35461664
C        8.60603742       2.12944201       3.35461664
C        7.37660319       5.67851213       3.35461664
C       -4.91773807       9.93739632       3.35461664
C        7.37660220       8.51776819       3.35461664
C        7.37660309       4.25888399       3.35461664
C       -6.14717060      10.64720992       3.35461664
C        6.14716934       7.80795458       3.35461664
C       -0.00000094       1.41962801       3.35461664
C        6.14716950       3.54907015       3.35461664
C        6.14716941       2.12944201       3.35461664
C        6.14716828       6.38832596       3.35461664
C        4.91773522       9.93739632       3.35461664
C        4.91773464       8.51776818       3.35461664
C        4.91773482       4.25888399       3.35461664
C        4.91773445       5.67851212       3.35461664
C        3.68830130       7.80795458       3.35461664
C        3.68830073       6.38832596       3.35461664
C        3.68830101       3.54907015       3.35461664
C        3.68830090       2.12944201       3.35461664
C        2.45886680       4.25888399       3.35461664
C        2.45886547       5.67851213       3.35461664
C        1.22943335       2.12944201       3.35461664
C        1.22943297       3.54906992       3.35461664
C        3.73706211      10.59877647       6.64597306
C        2.50074304       8.47832110       6.59560853
C        8.65599436       0.66380417       6.62381136
C        1.27929064      10.60327515       6.59458670
C        1.27651444       9.18598373       6.57247417
C        1.27422250       6.36054799       6.61197915
C        6.19802125       0.66379695       6.59346297
C        0.04571826       8.47540845       6.57086785
C        0.05175101       4.19898150       6.77663030
C        0.04404581       7.06208681       6.59274125
C       -1.18020449      10.59878404       6.59105776
C       -1.18227406       9.18136917       6.59413999
C       -1.18107531       6.34941641       6.67298489
C       -1.18409617       4.92530387       6.77663335
C       -1.17729164       2.07490654       6.68041456
C        3.73942525       0.65846032       6.59278503
C       -2.40918956       8.47083601       6.62762101
C       -2.41144635       4.20691826       6.73840567
C       -2.40657322       7.05158115       6.66359599
C        9.88668170       2.79121085       6.69378945
C       -3.63490925       6.33727649       6.69624183
C       -3.63794219       9.17805358       6.64455738
C        8.65684622       4.91965003       6.70519976
C       -3.63667500      10.59624593       6.61723903
C        8.65676413       2.08150022       6.64735175
C        1.28100877       0.65743708       6.62887002
C        7.43184308       7.04518154       6.71064991
C       -4.86636611       8.46844948       6.69293956
C        7.42883956       4.20905188       6.66162886
C        7.42890772       2.78997398       6.63442964
C       -6.09668765      10.59825537       6.66519235
C        6.20378587       4.91762524       6.66331503
C        6.20020254       9.18115615       6.70798250
C        6.19951153       2.07996291       6.60251161
C        6.21196324       6.33024291       6.73669228
C       11.11640417       0.65778019       6.66491052
C        4.96872640       8.48020001       6.74426812
C        4.97051149       2.78783044       6.58810438
C        4.97124473       4.20369693       6.61293728
C        4.97847923       7.05174079       6.82086938
C        3.73497125       9.18528830       6.65994172
C        3.72168371       6.33126854       6.79803339
C        3.74167328       4.89384585       6.63849386
C        3.74100488       2.07715744       6.57982197
C        2.48700335       7.06326089       6.61872255
C        2.52634751       4.19484016       6.62306058
C        2.51393584       2.78224351       6.59043509
C        1.29167023       4.92739800       6.74268526
C        1.28157153       2.07110421       6.62136050
C        0.05248801       2.76916316       6.69206681
Pt       0.61236189       4.73186861       8.82762621
Pt       0.65975973       4.78046221      11.34723290
Pt       3.98349503       6.75771826       8.85326231
Pt       2.73207461       5.10699959      10.09630777
154
Lattice="12.29434013 0.0 0.0 -6.14717148 10.64721006 0.0 0.0 0.0 22.0" Properties=species:S:1:pos:R:3 energy_eV=-1414.4741 mag=-2.0 pbc="T T T"
C        3.68830054      10.64720991       0.00000000
C        2.45886661       8.51776818       0.00000000
C        8.60603735       0.70981394       0.00000000
C        1.22943252      10.64720991       0.00000000
C        1.22943266       9.22758225       0.00000000
C        1.22943292       6.38832597       0.00000000
C        6.14716944       0.70981394       0.00000000
C       -0.00000141       8.51776818       0.00000000
C       -0.00000088       4.25888400       0.00000000
C       -0.00000162       7.09814005       0.00000000
C       -1.22943523      10.64720991       0.00000000
C       -1.22943516       9.22758225       0.00000000
C       -1.22943496       6.38832597       0.00000000
C       -1.22943488       4.96869830       0.00000000
C       11.06490545       2.12944202       0.00000000
C        3.68830141       0.70981394       0.00000000
C       -2.45886943       8.51776819       0.00000000
C        9.83547147       4.25888400       0.00000000
C       -2.45886954       7.09814005       0.00000000
C        9.83547138       2.83925608       0.00000000
C       -3.68830263       6.38832597       0.00000000
C       -3.68830363       9.22758226       0.00000000
C        8.60603739       4.96869830       0.00000000
C       -3.68830424      10.64720992       0.00000000
C        8.60603742       2.12944201       0.00000000
C        1.22943304       0.70981394       0.00000000
C        7.37660258       7.09814005       0.00000000
C        7.37660220       8.51776819       0.00000000
C        7.37660309       4.25888399       0.00000000
C        7.37660323       2.83925608       0.00000000
C       -6.14717060      10.64720992       0.00000000
C        6.14716913       4.96869830       0.00000000
C        6.14716800       9.22758224       0.00000000
C        6.14716941       2.12944201       0.00000000
C        6.14716828       6.38832596       0.00000000
C       11.06490585       0.70981393       0.00000000
C        4.91773464       8.51776818       0.00000000
C        4.91773520       2.83925608       0.00000000
C        4.91773482       4.25888399       0.00000000
C        4.91773408       7.09814004       0.00000000
C        3.68830092       9.22758225       0.00000000
C        3.68830073       6.38832596       0.00000000
C        3.68830063       4.96869829       0.00000000
C        3.68830090       2.12944201       0.00000000
C        2.45886700       7.09814004       0.00000000
C        2.45886680       4.25888399       0.00000000
C        2.45886623       2.83925608       0.00000000
C        1.22943355       4.96869830       0.00000000
C        1.22943335       2.12944201       0.00000000
C       -0.00000180       2.83925608       0.00000000
C        3.68830054      10.64720991       3.35461664
C        9.83547165       1.41962801       3.35461664
C        2.45886648       9.93739632       3.35461664
C        2.45886661       8.51776818       3.35461664
C        1.22943252      10.64720991       3.35461664
C        1.22943292       6.38832597       3.35461664
C        1.22943256       7.80795459       3.35461664
C        7.37660290       1.41962801       3.35461664
C       -0.00000166       9.93739632       3.35461664
C       -0.00000141       8.51776818       3.35461664
C       -0.00000101       5.67851213       3.35461664
C       -0.00000088       4.25888400       3.35461664
C       -1.22943523      10.64720991       3.35461664
C        4.91773520       1.41962801       3.35461664
C       -1.22943533       7.80795459       3.35461664
C       -1.22943496       6.38832597       3.35461664
C       -1.22943483       3.54907016       3.35461664
C       11.06490545       2.12944202       3.35461664
C       -2.45886945       9.93739632       3.35461664
C       -2.45886943       8.51776819       3.35461664
C        9.83547147       4.25888400       3.35461664
C       -2.45886916       5.67851214       3.35461664
C       -3.68830263       6.38832597       3.35461664
C       -3.68830302       7.80795459       3.35461664
C        2.45886710       1.41962800       3.35461664
C       -3.68830424      10.64720992       3.35461664
C        8.60603729       3.54907015       3.35461664
C        8.60603742       2.12944201       3.35461664
C        7.37660319       5.67851213       3.35461664
C       -4.91773807       9.93739632       3.35461664
C        7.37660220       8.51776819       3.35461664
C        7.37660309       4.25888399       3.35461664